
  ___ ___ ___ _ _ _  
 |   |   |_  | | | | 
 | | | | | . | | | | 
 |__ |  _|___|_____|  25.1.0
 |___|_|             

User:   tshepo@Tshepos-MacBook-Pro.local
Date:   Wed Nov 19 12:46:39 2025
Arch:   arm64
Pid:    64153
CWD:    /Users/tshepo/Documents/Workspace/msc/repositories/symmetry/optimized/h-varied
Python: 3.13.0
gpaw:   /Users/tshepo/.asdf/installs/python/3.13.0/lib/python3.13/site-packages/gpaw
_gpaw:  /Users/tshepo/.asdf/installs/python/3.13.0/lib/python3.13/site-packages/
        _gpaw.cpython-313-darwin.so
ase:    /Users/tshepo/.asdf/installs/python/3.13.0/lib/python3.13/site-packages/ase (version 3.25.0)
numpy:  /Users/tshepo/.asdf/installs/python/3.13.0/lib/python3.13/site-packages/numpy (version 2.2.3)
scipy:  /Users/tshepo/.asdf/installs/python/3.13.0/lib/python3.13/site-packages/scipy (version 1.15.2)
libxc:  7.0.0
units:  Angstrom and eV
cores: 1
OpenMP: False
OMP_NUM_THREADS: 1

Input parameters:
  basis: dzp
  convergence: {density: 0.0001}
  h: 0.19
  kpts: [3 3 3]
  mode: lcao
  symmetry: {point_group: False}
  xc: PBE

System changes: positions, numbers, cell, pbc, initial_charges, initial_magmoms 

Initialize ...

species:
  Si:
    name: Silicon
    id: ee77bee481871cc2cb65ac61239ccafa
    Z: 14.0
    valence: 4
    core: 10
    charge: 0.0
    file: /Users/tshepo/.gpaw/gpaw-setups-24.11.0/Si.PBE.gz
    compensation charges: {type: gauss,
                           rc: 0.33,
                           lmax: 2}
    cutoffs: {filter: 1.86,
              core: 2.06}
    projectors:
      #              energy  rcut
      - 3s(2.00)   -10.812   1.058
      - 3p(2.00)    -4.081   1.058
      -  s          16.399   1.058
      -  p          23.130   1.058
      -  d           0.000   1.058
  
    # LCAO basis set for Si:
    #   Name: dzp
    #   File: /Users/tshepo/.gpaw/gpaw-setups-24.11.0/Si.dzp.basis.gz
    #   Number of radial functions: 5
    #   Number of spherical harmonics: 13
    #     l=0, rc=6.8594 Bohr: 3s-sz confined orbital
    #     l=1, rc=9.0625 Bohr: 3p-sz confined orbital
    #     l=0, rc=3.8906 Bohr: 3s-dz split-valence wave
    #     l=1, rc=5.2344 Bohr: 3p-dz split-valence wave
    #     l=2, rc=9.0625 Bohr: d-type Gaussian polarization
    #   Number of RI-basis functions 0

Reference energy: -15772.688500  # eV

Spin-paired calculation

Convergence criteria:
 Maximum [total energy] change in last 3 cyles: 0.0005 eV / valence electron
 Maximum integral of absolute [dens]ity change: 0.0001 electrons / valence electron
 Maximum integral of absolute [eigenst]ate change: 4e-08 eV^2 / valence electron
 Maximum number of scf [iter]ations: 333
 (Square brackets indicate name in SCF output, whereas a 'c' in
 the SCF output indicates the quantity has converged.)

Symmetries present (total): 1

  ( 1  0  0)
  ( 0  1  0)
  ( 0  0  1)

27 k-points: 3 x 3 x 3 Monkhorst-Pack grid
14 k-points in the irreducible part of the Brillouin zone
       k-points in crystal coordinates                weights
   0:     0.00000000    0.00000000    0.00000000          1/27
   1:     0.00000000    0.00000000    0.33333333          2/27
   2:     0.00000000    0.33333333   -0.33333333          2/27
   3:     0.00000000    0.33333333    0.00000000          2/27
   4:     0.00000000    0.33333333    0.33333333          2/27
   5:     0.33333333   -0.33333333   -0.33333333          2/27
   6:     0.33333333   -0.33333333    0.00000000          2/27
   7:     0.33333333   -0.33333333    0.33333333          2/27
   8:     0.33333333    0.00000000   -0.33333333          2/27
   9:     0.33333333    0.00000000    0.00000000          2/27
          ...
  13:     0.33333333    0.33333333    0.33333333          2/27

Wave functions: LCAO
  Diagonalizer: Serial LAPACK
  Atomic Correction: dense with blas
  Data-type: complex
 

Occupation numbers: Fermi-Dirac:
  width: 0.1000  # eV
 

Eigensolver
   LCAO using direct dense diagonalizer 

Densities:
  Coarse grid: 16*16*16 grid
  Fine grid: 32*32*32 grid
  Total Charge: 0.000000 

Density mixing:
  Method: separate
  Backend: pulay
  Linear mixing parameter: 0.05
  old densities: 5
  Damping of long wavelength oscillations: 50 

Hamiltonian:
  XC and Coulomb potentials evaluated on a 32*32*32 grid
  Using the PBE Exchange-Correlation functional
  Interpolation: tri-quintic (5. degree polynomial)
  Poisson solver: FastPoissonSolver using
    Stencil: 12*3+1=37 point O(h^6) finite-difference Laplacian
    FFT axes: [np.int64(0), np.int64(1), np.int64(2)]
    FST axes: []
 

XC parameters: PBE with 2 nearest neighbor stencil

Memory estimate:
  Process memory now: 98.81 MiB
  Calculator: 13.42 MiB
    Density: 5.65 MiB
      Arrays: 0.81 MiB
      Localized functions: 4.52 MiB
      Mixer: 0.31 MiB
    Hamiltonian: 0.87 MiB
      Arrays: 0.53 MiB
      XC: 0.00 MiB
      Poisson: 0.00 MiB
      vbar: 0.34 MiB
    Wavefunctions: 6.90 MiB
      C [qnM]: 0.04 MiB
      S, T [2 x qmm]: 0.29 MiB
      P [aqMi]: 0.01 MiB
      BasisFunctions: 6.56 MiB
      Eigensolver: 0.00 MiB

Total number of cores used: 1

Number of atoms: 2
Number of atomic orbitals: 26
Number of bands in calculation: 8
Number of valence electrons: 8
Bands to converge: occupied

... initialized

Initializing position-dependent things.

Density initialized from atomic densities
                    
                    
                    
                    
           Si       
                    
       Si           
                    
                    
                    
                    

Positions:
   0 Si     0.000000    0.000000    0.000000    ( 0.0000,  0.0000,  0.0000)
   1 Si     1.357500    1.357500    1.357500    ( 0.0000,  0.0000,  0.0000)

Unit cell:
           periodic     x           y           z      points  spacing
  1. axis:    yes    0.000000    2.715000    2.715000    16     0.1959
  2. axis:    yes    2.715000    0.000000    2.715000    16     0.1959
  3. axis:    yes    2.715000    2.715000    0.000000    16     0.1959

  Lengths:   3.839590   3.839590   3.839590
  Angles:   60.000000  60.000000  60.000000

Effective grid spacing dv^(1/3) = 0.2138

     iter     time        total  log10-change:
                         energy   eigst   dens
iter:   1 12:46:39    -9.988455        c
iter:   2 12:46:40    -9.984938        c -0.79
iter:   3 12:46:41    -9.970192        c -0.81
iter:   4 12:46:42    -9.968178        c -1.83
iter:   5 12:46:43    -9.968210c       c -2.13
iter:   6 12:46:44    -9.968216c       c -3.56
iter:   7 12:46:45    -9.968209c       c -3.40
iter:   8 12:46:46    -9.968209c       c -4.54c

Converged after 8 iterations.

Dipole moment: (-3.882927, -3.882927, -3.882927) |e|*Ang

Energy contributions relative to reference atoms: (reference = -15772.688500)

Kinetic:        +15.801525
Potential:      -12.934369
External:        +0.000000
XC:             -12.821487
Entropy (-ST):   -0.006829
Local:           -0.010462
SIC:             +0.000000
--------------------------
Free energy:     -9.971623
Extrapolated:    -9.968209

Showing only first 2 kpts
 Kpt  Band  Eigenvalues  Occupancy
  0     2      5.40589    1.93548
  0     3      5.40589    1.93548
  0     4      8.01486    0.00000
  0     5      8.01500    0.00000

  1     2      4.38913    2.00000
  1     3      4.38962    2.00000
  1     4      7.21897    0.00000
  1     5      9.03734    0.00000


Fermi level: 5.74601

Gap: 0.751 eV
Transition (v -> c):
  (s=0, k=0, n=3, [0.00, 0.00, 0.00]) -> (s=0, k=4, n=4, [0.00, 0.33, 0.33])
Direct/indirect transitions are different
Direct gap: 2.609 eV
Transition at: (s=0, k=0, n=3, [0.00, 0.00, 0.00])
System changes: cell, positions, numbers 

Initialize ...

species:
  Si:
    name: Silicon
    id: ee77bee481871cc2cb65ac61239ccafa
    Z: 14.0
    valence: 4
    core: 10
    charge: 0.0
    file: /Users/tshepo/.gpaw/gpaw-setups-24.11.0/Si.PBE.gz
    compensation charges: {type: gauss,
                           rc: 0.33,
                           lmax: 2}
    cutoffs: {filter: 1.86,
              core: 2.06}
    projectors:
      #              energy  rcut
      - 3s(2.00)   -10.812   1.058
      - 3p(2.00)    -4.081   1.058
      -  s          16.399   1.058
      -  p          23.130   1.058
      -  d           0.000   1.058
  
    # LCAO basis set for Si:
    #   Name: dzp
    #   File: /Users/tshepo/.gpaw/gpaw-setups-24.11.0/Si.dzp.basis.gz
    #   Number of radial functions: 5
    #   Number of spherical harmonics: 13
    #     l=0, rc=6.8594 Bohr: 3s-sz confined orbital
    #     l=1, rc=9.0625 Bohr: 3p-sz confined orbital
    #     l=0, rc=3.8906 Bohr: 3s-dz split-valence wave
    #     l=1, rc=5.2344 Bohr: 3p-dz split-valence wave
    #     l=2, rc=9.0625 Bohr: d-type Gaussian polarization
    #   Number of RI-basis functions 0

Reference energy: -425862.589512  # eV

Spin-paired calculation

Convergence criteria:
 Maximum [total energy] change in last 3 cyles: 0.0005 eV / valence electron
 Maximum integral of absolute [dens]ity change: 0.0001 electrons / valence electron
 Maximum integral of absolute [eigenst]ate change: 4e-08 eV^2 / valence electron
 Maximum number of scf [iter]ations: 333
 (Square brackets indicate name in SCF output, whereas a 'c' in
 the SCF output indicates the quantity has converged.)

Symmetries present (total): 1

  ( 1  0  0)
  ( 0  1  0)
  ( 0  0  1)

27 k-points: 3 x 3 x 3 Monkhorst-Pack grid
14 k-points in the irreducible part of the Brillouin zone
       k-points in crystal coordinates                weights
   0:     0.00000000    0.00000000    0.00000000          1/27
   1:     0.00000000    0.00000000    0.33333333          2/27
   2:     0.00000000    0.33333333   -0.33333333          2/27
   3:     0.00000000    0.33333333    0.00000000          2/27
   4:     0.00000000    0.33333333    0.33333333          2/27
   5:     0.33333333   -0.33333333   -0.33333333          2/27
   6:     0.33333333   -0.33333333    0.00000000          2/27
   7:     0.33333333   -0.33333333    0.33333333          2/27
   8:     0.33333333    0.00000000   -0.33333333          2/27
   9:     0.33333333    0.00000000    0.00000000          2/27
          ...
  13:     0.33333333    0.33333333    0.33333333          2/27

Wave functions: LCAO
  Diagonalizer: Serial LAPACK
  Atomic Correction: dense with blas
  Data-type: complex
 

Occupation numbers: Fermi-Dirac:
  width: 0.1000  # eV
 

Eigensolver
   LCAO using direct dense diagonalizer 

Densities:
  Coarse grid: 48*48*48 grid
  Fine grid: 96*96*96 grid
  Total Charge: 0.000000 

Density mixing:
  Method: separate
  Backend: pulay
  Linear mixing parameter: 0.05
  old densities: 5
  Damping of long wavelength oscillations: 50 

Hamiltonian:
  XC and Coulomb potentials evaluated on a 96*96*96 grid
  Using the PBE Exchange-Correlation functional
  Interpolation: tri-quintic (5. degree polynomial)
  Poisson solver: FastPoissonSolver using
    Stencil: 12*3+1=37 point O(h^6) finite-difference Laplacian
    FFT axes: [np.int64(0), np.int64(1), np.int64(2)]
    FST axes: []
 

XC parameters: PBE with 2 nearest neighbor stencil

Memory estimate:
  Process memory now: 269.39 MiB
  Calculator: 590.21 MiB
    Density: 152.50 MiB
      Arrays: 21.94 MiB
      Localized functions: 122.12 MiB
      Mixer: 8.44 MiB
    Hamiltonian: 23.42 MiB
      Arrays: 14.34 MiB
      XC: 0.00 MiB
      Poisson: 0.00 MiB
      vbar: 9.08 MiB
    Wavefunctions: 414.29 MiB
      C [qnM]: 20.10 MiB
      S, T [2 x qmm]: 210.55 MiB
      P [aqMi]: 6.58 MiB
      BasisFunctions: 177.07 MiB
      Eigensolver: 0.00 MiB

Total number of cores used: 1

Number of atoms: 54
Number of atomic orbitals: 702
Number of bands in calculation: 134
Number of valence electrons: 216
Bands to converge: occupied

... initialized

Initializing position-dependent things.

Density initialized from atomic densities
                                                      
                                                      
                                                      
                                                      
                                             Si       
                                    Si                
                                         Si           
                            Si        Si              
                                Si                    
                              Si           Si         
                     Si Si     Si SSi                 
                          Si           Si             
                       Si Si        Si                
                 Si        Si  Si                     
               Si           Si           Si           
                   SSiSi      SiSSi                   
           Si           Si           Si               
                     Si  Si        Si                 
                Si        Si Si                       
             Si           Si                          
                 SSi Si     Si Si                     
         Si           Si                              
                    Si                                
              Si        Si                            
           Si                                         
                Si                                    
       Si                                             
                                                      
                                                      
                                                      
                                                      

Positions:
   0 Si     0.000000    0.000000    0.000000    ( 0.0000,  0.0000,  0.0000)
   1 Si     1.357500    1.357500    1.357500    ( 0.0000,  0.0000,  0.0000)
   2 Si     2.715000    2.715000    0.000000    ( 0.0000,  0.0000,  0.0000)
   3 Si     4.072500    4.072500    1.357500    ( 0.0000,  0.0000,  0.0000)
   4 Si     5.430000    5.430000    0.000000    ( 0.0000,  0.0000,  0.0000)
   5 Si     6.787500    6.787500    1.357500    ( 0.0000,  0.0000,  0.0000)
   6 Si     2.715000    0.000000    2.715000    ( 0.0000,  0.0000,  0.0000)
   7 Si     4.072500    1.357500    4.072500    ( 0.0000,  0.0000,  0.0000)
   8 Si     5.430000    2.715000    2.715000    ( 0.0000,  0.0000,  0.0000)
   9 Si     6.787500    4.072500    4.072500    ( 0.0000,  0.0000,  0.0000)
  10 Si     8.145000    5.430000    2.715000    ( 0.0000,  0.0000,  0.0000)
  11 Si     9.502500    6.787500    4.072500    ( 0.0000,  0.0000,  0.0000)
  12 Si     5.430000    0.000000    5.430000    ( 0.0000,  0.0000,  0.0000)
  13 Si     6.787500    1.357500    6.787500    ( 0.0000,  0.0000,  0.0000)
  14 Si     8.145000    2.715000    5.430000    ( 0.0000,  0.0000,  0.0000)
  15 Si     9.502500    4.072500    6.787500    ( 0.0000,  0.0000,  0.0000)
  16 Si    10.860000    5.430000    5.430000    ( 0.0000,  0.0000,  0.0000)
  17 Si    12.217500    6.787500    6.787500    ( 0.0000,  0.0000,  0.0000)
  18 Si     0.000000    2.715000    2.715000    ( 0.0000,  0.0000,  0.0000)
  19 Si     1.357500    4.072500    4.072500    ( 0.0000,  0.0000,  0.0000)
  20 Si     2.715000    5.430000    2.715000    ( 0.0000,  0.0000,  0.0000)
  21 Si     4.072500    6.787500    4.072500    ( 0.0000,  0.0000,  0.0000)
  22 Si     5.430000    8.145000    2.715000    ( 0.0000,  0.0000,  0.0000)
  23 Si     6.787500    9.502500    4.072500    ( 0.0000,  0.0000,  0.0000)
  24 Si     2.715000    2.715000    5.430000    ( 0.0000,  0.0000,  0.0000)
  25 Si     4.072500    4.072500    6.787500    ( 0.0000,  0.0000,  0.0000)
  26 Si     5.430000    5.430000    5.430000    ( 0.0000,  0.0000,  0.0000)
  27 Si     6.787500    6.787500    6.787500    ( 0.0000,  0.0000,  0.0000)
  28 Si     8.145000    8.145000    5.430000    ( 0.0000,  0.0000,  0.0000)
  29 Si     9.502500    9.502500    6.787500    ( 0.0000,  0.0000,  0.0000)
  30 Si     5.430000    2.715000    8.145000    ( 0.0000,  0.0000,  0.0000)
  31 Si     6.787500    4.072500    9.502500    ( 0.0000,  0.0000,  0.0000)
  32 Si     8.145000    5.430000    8.145000    ( 0.0000,  0.0000,  0.0000)
  33 Si     9.502500    6.787500    9.502500    ( 0.0000,  0.0000,  0.0000)
  34 Si    10.860000    8.145000    8.145000    ( 0.0000,  0.0000,  0.0000)
  35 Si    12.217500    9.502500    9.502500    ( 0.0000,  0.0000,  0.0000)
  36 Si     0.000000    5.430000    5.430000    ( 0.0000,  0.0000,  0.0000)
  37 Si     1.357500    6.787500    6.787500    ( 0.0000,  0.0000,  0.0000)
  38 Si     2.715000    8.145000    5.430000    ( 0.0000,  0.0000,  0.0000)
  39 Si     4.072500    9.502500    6.787500    ( 0.0000,  0.0000,  0.0000)
  40 Si     5.430000   10.860000    5.430000    ( 0.0000,  0.0000,  0.0000)
  41 Si     6.787500   12.217500    6.787500    ( 0.0000,  0.0000,  0.0000)
  42 Si     2.715000    5.430000    8.145000    ( 0.0000,  0.0000,  0.0000)
  43 Si     4.072500    6.787500    9.502500    ( 0.0000,  0.0000,  0.0000)
  44 Si     5.430000    8.145000    8.145000    ( 0.0000,  0.0000,  0.0000)
  45 Si     6.787500    9.502500    9.502500    ( 0.0000,  0.0000,  0.0000)
  46 Si     8.145000   10.860000    8.145000    ( 0.0000,  0.0000,  0.0000)
  47 Si     9.502500   12.217500    9.502500    ( 0.0000,  0.0000,  0.0000)
  48 Si     5.430000    5.430000   10.860000    ( 0.0000,  0.0000,  0.0000)
  49 Si     6.787500    6.787500   12.217500    ( 0.0000,  0.0000,  0.0000)
  50 Si     8.145000    8.145000   10.860000    ( 0.0000,  0.0000,  0.0000)
  51 Si     9.502500    9.502500   12.217500    ( 0.0000,  0.0000,  0.0000)
  52 Si    10.860000   10.860000   10.860000    ( 0.0000,  0.0000,  0.0000)
  53 Si    12.217500   12.217500   12.217500    ( 0.0000,  0.0000,  0.0000)

Unit cell:
           periodic     x           y           z      points  spacing
  1. axis:    yes    0.000000    8.145000    8.145000    48     0.1959
  2. axis:    yes    8.145000    0.000000    8.145000    48     0.1959
  3. axis:    yes    8.145000    8.145000    0.000000    48     0.1959

  Lengths:  11.518769  11.518769  11.518769
  Angles:   60.000000  60.000000  60.000000

Effective grid spacing dv^(1/3) = 0.2138

     iter     time        total  log10-change:
                         energy   eigst   dens
iter:   1 12:46:57  -285.734171        c
iter:   2 12:47:27  -285.723530        c -0.84
iter:   3 12:47:57  -285.857359        c -0.86
iter:   4 12:48:26  -285.808988        c -1.90
iter:   5 12:48:56  -285.806463c       c -2.25
iter:   6 12:49:26  -285.806462c       c -3.65
iter:   7 12:49:55  -285.806475c       c -3.65
iter:   8 12:50:25  -285.806472c       c -4.59c

Converged after 8 iterations.

Dipole moment: (-107.171457, -107.171457, -107.171457) |e|*Ang

Energy contributions relative to reference atoms: (reference = -425862.589512)

Kinetic:       +382.828572
Potential:     -333.062389
External:        +0.000000
XC:            -335.146416
Entropy (-ST):   -0.021538
Local:           -0.415469
SIC:             +0.000000
--------------------------
Free energy:   -285.817241
Extrapolated:  -285.806472

Showing only first 2 kpts
 Kpt  Band  Eigenvalues  Occupancy
  0   106      5.30738    1.90679
  0   107      5.30738    1.90679
  0   108      6.09531    0.01537
  0   109      6.09531    0.01537

  1   106      5.06721    1.99119
  1   107      5.06784    1.99113
  1   108      6.34985    0.00121
  1   109      6.35020    0.00121


Fermi level: 5.60921

Gap: 0.652 eV
Transition (v -> c):
  (s=0, k=0, n=107, [0.00, 0.00, 0.00]) -> (s=0, k=4, n=108, [0.00, 0.33, 0.33])
Direct/indirect transitions are different
Direct gap: 0.788 eV
Transition at: (s=0, k=0, n=107, [0.00, 0.00, 0.00])

Forces in eV/Ang:
  0 Si    0.00109    0.00109    0.00109
  1 Si   -0.00109   -0.00109   -0.00109
  2 Si    0.00109    0.00109    0.00109
  3 Si   -0.00109   -0.00109   -0.00109
  4 Si    0.00109    0.00109    0.00109
  5 Si   -0.00109   -0.00109   -0.00109
  6 Si    0.00109    0.00109    0.00109
  7 Si   -0.00109   -0.00109   -0.00109
  8 Si    0.00109    0.00109    0.00109
  9 Si   -0.00109   -0.00109   -0.00109
 10 Si    0.00109    0.00109    0.00109
 11 Si   -0.00109   -0.00109   -0.00109
 12 Si    0.00109    0.00109    0.00109
 13 Si   -0.00109   -0.00109   -0.00109
 14 Si    0.00109    0.00109    0.00109
 15 Si   -0.00109   -0.00109   -0.00109
 16 Si    0.00109    0.00109    0.00109
 17 Si   -0.00109   -0.00109   -0.00109
 18 Si    0.00109    0.00109    0.00109
 19 Si   -0.00109   -0.00109   -0.00109
 20 Si    0.00109    0.00109    0.00109
 21 Si   -0.00109   -0.00109   -0.00109
 22 Si    0.00109    0.00109    0.00109
 23 Si   -0.00109   -0.00109   -0.00109
 24 Si    0.00109    0.00109    0.00109
 25 Si   -0.00109   -0.00109   -0.00109
 26 Si    0.00109    0.00109    0.00109
 27 Si   -0.00109   -0.00109   -0.00109
 28 Si    0.00109    0.00109    0.00109
 29 Si   -0.00109   -0.00109   -0.00109
 30 Si    0.00109    0.00109    0.00109
 31 Si   -0.00109   -0.00109   -0.00109
 32 Si    0.00109    0.00109    0.00109
 33 Si   -0.00109   -0.00109   -0.00109
 34 Si    0.00109    0.00109    0.00109
 35 Si   -0.00109   -0.00109   -0.00109
 36 Si    0.00109    0.00109    0.00109
 37 Si   -0.00109   -0.00109   -0.00109
 38 Si    0.00109    0.00109    0.00109
 39 Si   -0.00109   -0.00109   -0.00109
 40 Si    0.00109    0.00109    0.00109
 41 Si   -0.00109   -0.00109   -0.00109
 42 Si    0.00109    0.00109    0.00109
 43 Si   -0.00109   -0.00109   -0.00109
 44 Si    0.00109    0.00109    0.00109
 45 Si   -0.00109   -0.00109   -0.00109
 46 Si    0.00109    0.00109    0.00109
 47 Si   -0.00109   -0.00109   -0.00109
 48 Si    0.00109    0.00109    0.00109
 49 Si   -0.00109   -0.00109   -0.00109
 50 Si    0.00109    0.00109    0.00109
 51 Si   -0.00109   -0.00109   -0.00109
 52 Si    0.00109    0.00109    0.00109
 53 Si   -0.00109   -0.00109   -0.00109

System changes: positions 

Initializing position-dependent things.

Density initialized from wave functions
                                                      
                                                      
                                                      
                                                      
                                             Si       
                                    Si                
                                         Si           
                            Si        Si              
                                Si                    
                              Si           Si         
                     Si Si     Si SSi                 
                          Si           Si             
                       Si Si        Si                
                 Si        Si  Si                     
               Si           Si           Si           
                   SSiSi      SiSSi                   
           Si           Si           Si               
                     Si  Si        Si                 
                Si        Si Si                       
             Si           Si                          
                 SSi Si     Si Si                     
         Si           Si                              
                    Si                                
              Si        Si                            
           Si                                         
                Si                                    
       Si                                             
                                                      
                                                      
                                                      
                                                      

Positions:
   0 Si     0.000000    0.000000    0.000000    ( 0.0000,  0.0000,  0.0000)
   1 Si     1.357500    1.357500    1.357500    ( 0.0000,  0.0000,  0.0000)
   2 Si     2.715000    2.715000    0.000000    ( 0.0000,  0.0000,  0.0000)
   3 Si     4.072500    4.072500    1.357500    ( 0.0000,  0.0000,  0.0000)
   4 Si     5.430000    5.430000    0.000000    ( 0.0000,  0.0000,  0.0000)
   5 Si     6.787500    6.787500    1.357500    ( 0.0000,  0.0000,  0.0000)
   6 Si     2.715000    0.000000    2.715000    ( 0.0000,  0.0000,  0.0000)
   7 Si     4.072500    1.357500    4.072500    ( 0.0000,  0.0000,  0.0000)
   8 Si     5.430000    2.715000    2.715000    ( 0.0000,  0.0000,  0.0000)
   9 Si     6.787500    4.072500    4.072500    ( 0.0000,  0.0000,  0.0000)
  10 Si     8.145000    5.430000    2.715000    ( 0.0000,  0.0000,  0.0000)
  11 Si     9.502500    6.787500    4.072500    ( 0.0000,  0.0000,  0.0000)
  12 Si     5.430000    0.000000    5.430000    ( 0.0000,  0.0000,  0.0000)
  13 Si     6.787500    1.357500    6.787500    ( 0.0000,  0.0000,  0.0000)
  14 Si     8.145000    2.715000    5.430000    ( 0.0000,  0.0000,  0.0000)
  15 Si     9.502500    4.072500    6.787500    ( 0.0000,  0.0000,  0.0000)
  16 Si    10.860000    5.430000    5.430000    ( 0.0000,  0.0000,  0.0000)
  17 Si    12.217500    6.787500    6.787500    ( 0.0000,  0.0000,  0.0000)
  18 Si     0.000000    2.715000    2.715000    ( 0.0000,  0.0000,  0.0000)
  19 Si     1.357500    4.072500    4.072500    ( 0.0000,  0.0000,  0.0000)
  20 Si     2.715000    5.430000    2.715000    ( 0.0000,  0.0000,  0.0000)
  21 Si     4.072500    6.787500    4.072500    ( 0.0000,  0.0000,  0.0000)
  22 Si     5.430000    8.145000    2.715000    ( 0.0000,  0.0000,  0.0000)
  23 Si     6.787500    9.502500    4.072500    ( 0.0000,  0.0000,  0.0000)
  24 Si     2.715000    2.715000    5.430000    ( 0.0000,  0.0000,  0.0000)
  25 Si     4.072500    4.072500    6.787500    ( 0.0000,  0.0000,  0.0000)
  26 Si     5.420000    5.430000    5.430000    ( 0.0000,  0.0000,  0.0000)
  27 Si     6.787500    6.787500    6.787500    ( 0.0000,  0.0000,  0.0000)
  28 Si     8.145000    8.145000    5.430000    ( 0.0000,  0.0000,  0.0000)
  29 Si     9.502500    9.502500    6.787500    ( 0.0000,  0.0000,  0.0000)
  30 Si     5.430000    2.715000    8.145000    ( 0.0000,  0.0000,  0.0000)
  31 Si     6.787500    4.072500    9.502500    ( 0.0000,  0.0000,  0.0000)
  32 Si     8.145000    5.430000    8.145000    ( 0.0000,  0.0000,  0.0000)
  33 Si     9.502500    6.787500    9.502500    ( 0.0000,  0.0000,  0.0000)
  34 Si    10.860000    8.145000    8.145000    ( 0.0000,  0.0000,  0.0000)
  35 Si    12.217500    9.502500    9.502500    ( 0.0000,  0.0000,  0.0000)
  36 Si     0.000000    5.430000    5.430000    ( 0.0000,  0.0000,  0.0000)
  37 Si     1.357500    6.787500    6.787500    ( 0.0000,  0.0000,  0.0000)
  38 Si     2.715000    8.145000    5.430000    ( 0.0000,  0.0000,  0.0000)
  39 Si     4.072500    9.502500    6.787500    ( 0.0000,  0.0000,  0.0000)
  40 Si     5.430000   10.860000    5.430000    ( 0.0000,  0.0000,  0.0000)
  41 Si     6.787500   12.217500    6.787500    ( 0.0000,  0.0000,  0.0000)
  42 Si     2.715000    5.430000    8.145000    ( 0.0000,  0.0000,  0.0000)
  43 Si     4.072500    6.787500    9.502500    ( 0.0000,  0.0000,  0.0000)
  44 Si     5.430000    8.145000    8.145000    ( 0.0000,  0.0000,  0.0000)
  45 Si     6.787500    9.502500    9.502500    ( 0.0000,  0.0000,  0.0000)
  46 Si     8.145000   10.860000    8.145000    ( 0.0000,  0.0000,  0.0000)
  47 Si     9.502500   12.217500    9.502500    ( 0.0000,  0.0000,  0.0000)
  48 Si     5.430000    5.430000   10.860000    ( 0.0000,  0.0000,  0.0000)
  49 Si     6.787500    6.787500   12.217500    ( 0.0000,  0.0000,  0.0000)
  50 Si     8.145000    8.145000   10.860000    ( 0.0000,  0.0000,  0.0000)
  51 Si     9.502500    9.502500   12.217500    ( 0.0000,  0.0000,  0.0000)
  52 Si    10.860000   10.860000   10.860000    ( 0.0000,  0.0000,  0.0000)
  53 Si    12.217500   12.217500   12.217500    ( 0.0000,  0.0000,  0.0000)

Unit cell:
           periodic     x           y           z      points  spacing
  1. axis:    yes    0.000000    8.145000    8.145000    48     0.1959
  2. axis:    yes    8.145000    0.000000    8.145000    48     0.1959
  3. axis:    yes    8.145000    8.145000    0.000000    48     0.1959

  Lengths:  11.518769  11.518769  11.518769
  Angles:   60.000000  60.000000  60.000000

Effective grid spacing dv^(1/3) = 0.2138

     iter     time        total  log10-change:
                         energy   eigst   dens
iter:   1 12:53:11  -285.805942        c
iter:   2 12:53:40  -285.805895        c -3.77
iter:   3 12:54:10  -285.805799c       c -3.88
iter:   4 12:54:40  -285.805786c       c -4.00
iter:   5 12:55:09  -285.805785c       c -4.36c

Converged after 5 iterations.

Dipole moment: (-107.173921, -107.172714, -107.172714) |e|*Ang

Energy contributions relative to reference atoms: (reference = -425862.589512)

Kinetic:       +382.777336
Potential:     -333.014056
External:        +0.000000
XC:            -335.138936
Entropy (-ST):   -0.021538
Local:           -0.419360
SIC:             +0.000000
--------------------------
Free energy:   -285.816554
Extrapolated:  -285.805785

Showing only first 2 kpts
 Kpt  Band  Eigenvalues  Occupancy
  0   106      5.30699    1.90710
  0   107      5.30874    1.90554
  0   108      6.09349    0.01564
  0   109      6.09383    0.01559

  1   106      5.06697    1.99120
  1   107      5.06896    1.99103
  1   108      6.34890    0.00123
  1   109      6.35019    0.00121


Fermi level: 5.60917

Gap: 0.650 eV
Transition (v -> c):
  (s=0, k=0, n=107, [0.00, 0.00, 0.00]) -> (s=0, k=4, n=108, [0.00, 0.33, 0.33])
Direct/indirect transitions are different
Direct gap: 0.785 eV
Transition at: (s=0, k=0, n=107, [0.00, 0.00, 0.00])

Forces in eV/Ang:
  0 Si    0.00053    0.00211    0.00211
  1 Si   -0.00160   -0.00110   -0.00110
  2 Si    0.00052    0.00209    0.00010
  3 Si   -0.00061   -0.00123   -0.00103
  4 Si    0.00017    0.00091    0.00112
  5 Si   -0.00062   -0.00123   -0.00117
  6 Si    0.00052    0.00010    0.00209
  7 Si   -0.00061   -0.00103   -0.00123
  8 Si    0.00576   -0.00007   -0.00007
  9 Si   -0.03628    0.02349    0.02349
 10 Si   -0.00067    0.00273    0.00291
 11 Si   -0.00023   -0.00035   -0.00184
 12 Si    0.00017    0.00112    0.00091
 13 Si   -0.00062   -0.00117   -0.00123
 14 Si   -0.00067    0.00291    0.00273
 15 Si   -0.00023   -0.00184   -0.00035
 16 Si    0.00146    0.00110    0.00110
 17 Si   -0.00141   -0.00128   -0.00128
 18 Si    0.00053    0.00009    0.00009
 19 Si   -0.00023   -0.00036   -0.00036
 20 Si   -0.00072    0.00274   -0.00075
 21 Si   -0.03663    0.02413   -0.02633
 22 Si    0.00578   -0.00006    0.00225
 23 Si   -0.00062   -0.00102   -0.00097
 24 Si   -0.00072   -0.00075    0.00274
 25 Si   -0.03663   -0.02633    0.02413
 26 Si    0.14038    0.00108    0.00108
 27 Si   -0.03628   -0.02566   -0.02566
 28 Si   -0.00067   -0.00071   -0.00054
 29 Si   -0.00088   -0.00155   -0.00110
 30 Si    0.00578    0.00225   -0.00006
 31 Si   -0.00062   -0.00097   -0.00102
 32 Si   -0.00067   -0.00054   -0.00071
 33 Si   -0.00088   -0.00110   -0.00155
 34 Si    0.00059    0.00042    0.00042
 35 Si   -0.00421   -0.00110   -0.00110
 36 Si    0.00150    0.00110    0.00110
 37 Si   -0.00023   -0.00184   -0.00184
 38 Si   -0.00072    0.00295   -0.00055
 39 Si   -0.00061   -0.00117   -0.00096
 40 Si    0.00017    0.00108    0.00129
 41 Si   -0.00138   -0.00131   -0.00088
 42 Si   -0.00072   -0.00055    0.00295
 43 Si   -0.00061   -0.00096   -0.00117
 44 Si    0.00576    0.00227    0.00227
 45 Si   -0.00419   -0.00110   -0.00110
 46 Si    0.00059    0.00042    0.00177
 47 Si   -0.00088   -0.00110   -0.00064
 48 Si    0.00017    0.00129    0.00108
 49 Si   -0.00138   -0.00088   -0.00131
 50 Si    0.00059    0.00177    0.00042
 51 Si   -0.00088   -0.00064   -0.00110
 52 Si    0.00059    0.00177    0.00177
 53 Si   -0.00141   -0.00092   -0.00092

System changes: positions 

Initializing position-dependent things.

Density initialized from wave functions
                                                      
                                                      
                                                      
                                                      
                                             Si       
                                    Si                
                                         Si           
                            Si        Si              
                                Si                    
                              Si           Si         
                     Si Si     Si SSi                 
                          Si           Si             
                       Si Si        Si                
                 Si        Si  Si                     
               Si           Si           Si           
                   SSiSi      SiSSi                   
           Si           Si           Si               
                     Si  Si        Si                 
                Si        Si Si                       
             Si           Si                          
                 SSi Si     Si Si                     
         Si           Si                              
                    Si                                
              Si        Si                            
           Si                                         
                Si                                    
       Si                                             
                                                      
                                                      
                                                      
                                                      

Positions:
   0 Si     0.000000    0.000000    0.000000    ( 0.0000,  0.0000,  0.0000)
   1 Si     1.357500    1.357500    1.357500    ( 0.0000,  0.0000,  0.0000)
   2 Si     2.715000    2.715000    0.000000    ( 0.0000,  0.0000,  0.0000)
   3 Si     4.072500    4.072500    1.357500    ( 0.0000,  0.0000,  0.0000)
   4 Si     5.430000    5.430000    0.000000    ( 0.0000,  0.0000,  0.0000)
   5 Si     6.787500    6.787500    1.357500    ( 0.0000,  0.0000,  0.0000)
   6 Si     2.715000    0.000000    2.715000    ( 0.0000,  0.0000,  0.0000)
   7 Si     4.072500    1.357500    4.072500    ( 0.0000,  0.0000,  0.0000)
   8 Si     5.430000    2.715000    2.715000    ( 0.0000,  0.0000,  0.0000)
   9 Si     6.787500    4.072500    4.072500    ( 0.0000,  0.0000,  0.0000)
  10 Si     8.145000    5.430000    2.715000    ( 0.0000,  0.0000,  0.0000)
  11 Si     9.502500    6.787500    4.072500    ( 0.0000,  0.0000,  0.0000)
  12 Si     5.430000    0.000000    5.430000    ( 0.0000,  0.0000,  0.0000)
  13 Si     6.787500    1.357500    6.787500    ( 0.0000,  0.0000,  0.0000)
  14 Si     8.145000    2.715000    5.430000    ( 0.0000,  0.0000,  0.0000)
  15 Si     9.502500    4.072500    6.787500    ( 0.0000,  0.0000,  0.0000)
  16 Si    10.860000    5.430000    5.430000    ( 0.0000,  0.0000,  0.0000)
  17 Si    12.217500    6.787500    6.787500    ( 0.0000,  0.0000,  0.0000)
  18 Si     0.000000    2.715000    2.715000    ( 0.0000,  0.0000,  0.0000)
  19 Si     1.357500    4.072500    4.072500    ( 0.0000,  0.0000,  0.0000)
  20 Si     2.715000    5.430000    2.715000    ( 0.0000,  0.0000,  0.0000)
  21 Si     4.072500    6.787500    4.072500    ( 0.0000,  0.0000,  0.0000)
  22 Si     5.430000    8.145000    2.715000    ( 0.0000,  0.0000,  0.0000)
  23 Si     6.787500    9.502500    4.072500    ( 0.0000,  0.0000,  0.0000)
  24 Si     2.715000    2.715000    5.430000    ( 0.0000,  0.0000,  0.0000)
  25 Si     4.072500    4.072500    6.787500    ( 0.0000,  0.0000,  0.0000)
  26 Si     5.440000    5.430000    5.430000    ( 0.0000,  0.0000,  0.0000)
  27 Si     6.787500    6.787500    6.787500    ( 0.0000,  0.0000,  0.0000)
  28 Si     8.145000    8.145000    5.430000    ( 0.0000,  0.0000,  0.0000)
  29 Si     9.502500    9.502500    6.787500    ( 0.0000,  0.0000,  0.0000)
  30 Si     5.430000    2.715000    8.145000    ( 0.0000,  0.0000,  0.0000)
  31 Si     6.787500    4.072500    9.502500    ( 0.0000,  0.0000,  0.0000)
  32 Si     8.145000    5.430000    8.145000    ( 0.0000,  0.0000,  0.0000)
  33 Si     9.502500    6.787500    9.502500    ( 0.0000,  0.0000,  0.0000)
  34 Si    10.860000    8.145000    8.145000    ( 0.0000,  0.0000,  0.0000)
  35 Si    12.217500    9.502500    9.502500    ( 0.0000,  0.0000,  0.0000)
  36 Si     0.000000    5.430000    5.430000    ( 0.0000,  0.0000,  0.0000)
  37 Si     1.357500    6.787500    6.787500    ( 0.0000,  0.0000,  0.0000)
  38 Si     2.715000    8.145000    5.430000    ( 0.0000,  0.0000,  0.0000)
  39 Si     4.072500    9.502500    6.787500    ( 0.0000,  0.0000,  0.0000)
  40 Si     5.430000   10.860000    5.430000    ( 0.0000,  0.0000,  0.0000)
  41 Si     6.787500   12.217500    6.787500    ( 0.0000,  0.0000,  0.0000)
  42 Si     2.715000    5.430000    8.145000    ( 0.0000,  0.0000,  0.0000)
  43 Si     4.072500    6.787500    9.502500    ( 0.0000,  0.0000,  0.0000)
  44 Si     5.430000    8.145000    8.145000    ( 0.0000,  0.0000,  0.0000)
  45 Si     6.787500    9.502500    9.502500    ( 0.0000,  0.0000,  0.0000)
  46 Si     8.145000   10.860000    8.145000    ( 0.0000,  0.0000,  0.0000)
  47 Si     9.502500   12.217500    9.502500    ( 0.0000,  0.0000,  0.0000)
  48 Si     5.430000    5.430000   10.860000    ( 0.0000,  0.0000,  0.0000)
  49 Si     6.787500    6.787500   12.217500    ( 0.0000,  0.0000,  0.0000)
  50 Si     8.145000    8.145000   10.860000    ( 0.0000,  0.0000,  0.0000)
  51 Si     9.502500    9.502500   12.217500    ( 0.0000,  0.0000,  0.0000)
  52 Si    10.860000   10.860000   10.860000    ( 0.0000,  0.0000,  0.0000)
  53 Si    12.217500   12.217500   12.217500    ( 0.0000,  0.0000,  0.0000)

Unit cell:
           periodic     x           y           z      points  spacing
  1. axis:    yes    0.000000    8.145000    8.145000    48     0.1959
  2. axis:    yes    8.145000    0.000000    8.145000    48     0.1959
  3. axis:    yes    8.145000    8.145000    0.000000    48     0.1959

  Lengths:  11.518769  11.518769  11.518769
  Angles:   60.000000  60.000000  60.000000

Effective grid spacing dv^(1/3) = 0.2138

     iter     time        total  log10-change:
                         energy   eigst   dens
iter:   1 12:57:55  -285.806439        c
iter:   2 12:58:24  -285.806249        c -3.47
iter:   3 12:58:54  -285.805863c       c -3.56
iter:   4 12:59:23  -285.805813c       c -3.70
iter:   5 12:59:52  -285.805808c       c -4.06c

Converged after 5 iterations.

Dipole moment: (-107.170752, -107.172684, -107.172684) |e|*Ang

Energy contributions relative to reference atoms: (reference = -425862.589512)

Kinetic:       +382.779404
Potential:     -333.015873
External:        +0.000000
XC:            -335.139153
Entropy (-ST):   -0.021539
Local:           -0.419416
SIC:             +0.000000
--------------------------
Free energy:   -285.816577
Extrapolated:  -285.805808

Showing only first 2 kpts
 Kpt  Band  Eigenvalues  Occupancy
  0   106      5.30713    1.90698
  0   107      5.30917    1.90515
  0   108      6.09348    0.01564
  0   109      6.09383    0.01559

  1   106      5.06571    1.99131
  1   107      5.06828    1.99109
  1   108      6.34848    0.00123
  1   109      6.34998    0.00121


Fermi level: 5.60917

Gap: 0.650 eV
Transition (v -> c):
  (s=0, k=0, n=107, [0.00, 0.00, 0.00]) -> (s=0, k=12, n=108, [0.33, 0.33, 0.00])
Direct/indirect transitions are different
Direct gap: 0.784 eV
Transition at: (s=0, k=0, n=107, [0.00, 0.00, 0.00])

Forces in eV/Ang:
  0 Si    0.00180   -0.00034   -0.00034
  1 Si    0.00015   -0.00110   -0.00110
  2 Si    0.00178   -0.00036    0.00256
  3 Si   -0.00149   -0.00147   -0.00082
  4 Si    0.00253    0.00147    0.00114
  5 Si   -0.00149   -0.00147   -0.00139
  6 Si    0.00178    0.00256   -0.00036
  7 Si   -0.00149   -0.00082   -0.00147
  8 Si   -0.00278    0.00258    0.00258
  9 Si    0.03448   -0.02647   -0.02647
 10 Si    0.00305   -0.00131   -0.00063
 11 Si   -0.00270   -0.00207   -0.00012
 12 Si    0.00253    0.00114    0.00147
 13 Si   -0.00149   -0.00139   -0.00147
 14 Si    0.00305   -0.00063   -0.00131
 15 Si   -0.00270   -0.00012   -0.00207
 16 Si   -0.00004    0.00110    0.00110
 17 Si   -0.00022   -0.00072   -0.00072
 18 Si    0.00180    0.00253    0.00253
 19 Si   -0.00272   -0.00207   -0.00207
 20 Si    0.00299   -0.00130    0.00278
 21 Si    0.03415   -0.02581    0.02362
 22 Si   -0.00277    0.00262   -0.00042
 23 Si   -0.00149   -0.00080   -0.00072
 24 Si    0.00299    0.00278   -0.00130
 25 Si    0.03415    0.02362   -0.02581
 26 Si   -0.14171    0.00112    0.00112
 27 Si    0.03447    0.02425    0.02425
 28 Si    0.00305    0.00283    0.00351
 29 Si   -0.00185   -0.00029   -0.00110
 30 Si   -0.00277   -0.00042    0.00262
 31 Si   -0.00149   -0.00072   -0.00080
 32 Si    0.00305    0.00351    0.00283
 33 Si   -0.00185   -0.00110   -0.00029
 34 Si    0.00167    0.00192    0.00192
 35 Si    0.00147   -0.00110   -0.00110
 36 Si    0.00005    0.00110    0.00110
 37 Si   -0.00272   -0.00012   -0.00012
 38 Si    0.00298   -0.00058    0.00350
 39 Si   -0.00149   -0.00138   -0.00073
 40 Si    0.00253    0.00106    0.00073
 41 Si   -0.00016   -0.00079   -0.00141
 42 Si    0.00298    0.00350   -0.00058
 43 Si   -0.00149   -0.00073   -0.00138
 44 Si   -0.00278   -0.00039   -0.00039
 45 Si    0.00149   -0.00110   -0.00110
 46 Si    0.00167    0.00192    0.00028
 47 Si   -0.00185   -0.00110   -0.00191
 48 Si    0.00253    0.00073    0.00106
 49 Si   -0.00016   -0.00141   -0.00079
 50 Si    0.00167    0.00028    0.00192
 51 Si   -0.00185   -0.00191   -0.00110
 52 Si    0.00167    0.00028    0.00028
 53 Si   -0.00022   -0.00147   -0.00147

System changes: positions 

Initializing position-dependent things.

Density initialized from wave functions
                                                      
                                                      
                                                      
                                                      
                                             Si       
                                    Si                
                                         Si           
                            Si        Si              
                                Si                    
                              Si           Si         
                     Si Si     Si SSi                 
                          Si           Si             
                       Si Si        Si                
                 Si        Si  Si                     
               Si           Si           Si           
                   SSiSi      SiSSi                   
           Si           Si           Si               
                     Si  Si        Si                 
                Si        Si Si                       
             Si           Si                          
                 SSi Si     Si Si                     
         Si           Si                              
                    Si                                
              Si        Si                            
           Si                                         
                Si                                    
       Si                                             
                                                      
                                                      
                                                      
                                                      

Positions:
   0 Si     0.000000    0.000000    0.000000    ( 0.0000,  0.0000,  0.0000)
   1 Si     1.357500    1.357500    1.357500    ( 0.0000,  0.0000,  0.0000)
   2 Si     2.715000    2.715000    0.000000    ( 0.0000,  0.0000,  0.0000)
   3 Si     4.072500    4.072500    1.357500    ( 0.0000,  0.0000,  0.0000)
   4 Si     5.430000    5.430000    0.000000    ( 0.0000,  0.0000,  0.0000)
   5 Si     6.787500    6.787500    1.357500    ( 0.0000,  0.0000,  0.0000)
   6 Si     2.715000    0.000000    2.715000    ( 0.0000,  0.0000,  0.0000)
   7 Si     4.072500    1.357500    4.072500    ( 0.0000,  0.0000,  0.0000)
   8 Si     5.430000    2.715000    2.715000    ( 0.0000,  0.0000,  0.0000)
   9 Si     6.787500    4.072500    4.072500    ( 0.0000,  0.0000,  0.0000)
  10 Si     8.145000    5.430000    2.715000    ( 0.0000,  0.0000,  0.0000)
  11 Si     9.502500    6.787500    4.072500    ( 0.0000,  0.0000,  0.0000)
  12 Si     5.430000    0.000000    5.430000    ( 0.0000,  0.0000,  0.0000)
  13 Si     6.787500    1.357500    6.787500    ( 0.0000,  0.0000,  0.0000)
  14 Si     8.145000    2.715000    5.430000    ( 0.0000,  0.0000,  0.0000)
  15 Si     9.502500    4.072500    6.787500    ( 0.0000,  0.0000,  0.0000)
  16 Si    10.860000    5.430000    5.430000    ( 0.0000,  0.0000,  0.0000)
  17 Si    12.217500    6.787500    6.787500    ( 0.0000,  0.0000,  0.0000)
  18 Si     0.000000    2.715000    2.715000    ( 0.0000,  0.0000,  0.0000)
  19 Si     1.357500    4.072500    4.072500    ( 0.0000,  0.0000,  0.0000)
  20 Si     2.715000    5.430000    2.715000    ( 0.0000,  0.0000,  0.0000)
  21 Si     4.072500    6.787500    4.072500    ( 0.0000,  0.0000,  0.0000)
  22 Si     5.430000    8.145000    2.715000    ( 0.0000,  0.0000,  0.0000)
  23 Si     6.787500    9.502500    4.072500    ( 0.0000,  0.0000,  0.0000)
  24 Si     2.715000    2.715000    5.430000    ( 0.0000,  0.0000,  0.0000)
  25 Si     4.072500    4.072500    6.787500    ( 0.0000,  0.0000,  0.0000)
  26 Si     5.430000    5.420000    5.430000    ( 0.0000,  0.0000,  0.0000)
  27 Si     6.787500    6.787500    6.787500    ( 0.0000,  0.0000,  0.0000)
  28 Si     8.145000    8.145000    5.430000    ( 0.0000,  0.0000,  0.0000)
  29 Si     9.502500    9.502500    6.787500    ( 0.0000,  0.0000,  0.0000)
  30 Si     5.430000    2.715000    8.145000    ( 0.0000,  0.0000,  0.0000)
  31 Si     6.787500    4.072500    9.502500    ( 0.0000,  0.0000,  0.0000)
  32 Si     8.145000    5.430000    8.145000    ( 0.0000,  0.0000,  0.0000)
  33 Si     9.502500    6.787500    9.502500    ( 0.0000,  0.0000,  0.0000)
  34 Si    10.860000    8.145000    8.145000    ( 0.0000,  0.0000,  0.0000)
  35 Si    12.217500    9.502500    9.502500    ( 0.0000,  0.0000,  0.0000)
  36 Si     0.000000    5.430000    5.430000    ( 0.0000,  0.0000,  0.0000)
  37 Si     1.357500    6.787500    6.787500    ( 0.0000,  0.0000,  0.0000)
  38 Si     2.715000    8.145000    5.430000    ( 0.0000,  0.0000,  0.0000)
  39 Si     4.072500    9.502500    6.787500    ( 0.0000,  0.0000,  0.0000)
  40 Si     5.430000   10.860000    5.430000    ( 0.0000,  0.0000,  0.0000)
  41 Si     6.787500   12.217500    6.787500    ( 0.0000,  0.0000,  0.0000)
  42 Si     2.715000    5.430000    8.145000    ( 0.0000,  0.0000,  0.0000)
  43 Si     4.072500    6.787500    9.502500    ( 0.0000,  0.0000,  0.0000)
  44 Si     5.430000    8.145000    8.145000    ( 0.0000,  0.0000,  0.0000)
  45 Si     6.787500    9.502500    9.502500    ( 0.0000,  0.0000,  0.0000)
  46 Si     8.145000   10.860000    8.145000    ( 0.0000,  0.0000,  0.0000)
  47 Si     9.502500   12.217500    9.502500    ( 0.0000,  0.0000,  0.0000)
  48 Si     5.430000    5.430000   10.860000    ( 0.0000,  0.0000,  0.0000)
  49 Si     6.787500    6.787500   12.217500    ( 0.0000,  0.0000,  0.0000)
  50 Si     8.145000    8.145000   10.860000    ( 0.0000,  0.0000,  0.0000)
  51 Si     9.502500    9.502500   12.217500    ( 0.0000,  0.0000,  0.0000)
  52 Si    10.860000   10.860000   10.860000    ( 0.0000,  0.0000,  0.0000)
  53 Si    12.217500   12.217500   12.217500    ( 0.0000,  0.0000,  0.0000)

Unit cell:
           periodic     x           y           z      points  spacing
  1. axis:    yes    0.000000    8.145000    8.145000    48     0.1959
  2. axis:    yes    8.145000    0.000000    8.145000    48     0.1959
  3. axis:    yes    8.145000    8.145000    0.000000    48     0.1959

  Lengths:  11.518769  11.518769  11.518769
  Angles:   60.000000  60.000000  60.000000

Effective grid spacing dv^(1/3) = 0.2138

     iter     time        total  log10-change:
                         energy   eigst   dens
iter:   1 13:02:41  -285.806107        c
iter:   2 13:03:11  -285.806009        c -3.61
iter:   3 13:03:41  -285.805813c       c -3.70
iter:   4 13:04:10  -285.805788c       c -3.87
iter:   5 13:04:40  -285.805785c       c -4.22c

Converged after 5 iterations.

Dipole moment: (-107.173370, -107.173945, -107.172686) |e|*Ang

Energy contributions relative to reference atoms: (reference = -425862.589512)

Kinetic:       +382.779408
Potential:     -333.015788
External:        +0.000000
XC:            -335.139153
Entropy (-ST):   -0.021538
Local:           -0.419484
SIC:             +0.000000
--------------------------
Free energy:   -285.816554
Extrapolated:  -285.805785

Showing only first 2 kpts
 Kpt  Band  Eigenvalues  Occupancy
  0   106      5.30699    1.90710
  0   107      5.30874    1.90554
  0   108      6.09350    0.01564
  0   109      6.09382    0.01559

  1   106      5.06696    1.99120
  1   107      5.06896    1.99103
  1   108      6.34890    0.00123
  1   109      6.35019    0.00121


Fermi level: 5.60917

Gap: 0.650 eV
Transition (v -> c):
  (s=0, k=0, n=107, [0.00, 0.00, 0.00]) -> (s=0, k=10, n=108, [0.33, 0.00, 0.33])
Direct/indirect transitions are different
Direct gap: 0.785 eV
Transition at: (s=0, k=0, n=107, [0.00, 0.00, 0.00])

Forces in eV/Ang:
  0 Si    0.00194    0.00109    0.00258
  1 Si   -0.00190   -0.00160   -0.00110
  2 Si    0.00192    0.00107   -0.00037
  3 Si   -0.00132   -0.00006   -0.00144
  4 Si    0.00028   -0.00000    0.00112
  5 Si   -0.00133   -0.00008   -0.00075
  6 Si   -0.00000    0.00005    0.00064
  7 Si   -0.00053   -0.00074    0.00010
  8 Si    0.00197   -0.00115   -0.00123
  9 Si    0.02393   -0.03624   -0.02622
 10 Si   -0.00008    0.00659    0.00205
 11 Si   -0.00019   -0.00034   -0.00124
 12 Si    0.00051    0.00143    0.00089
 13 Si   -0.00184    0.00002   -0.00121
 14 Si    0.00309   -0.00104    0.00029
 15 Si   -0.00026   -0.00089   -0.00068
 16 Si    0.00181    0.00021    0.00132
 17 Si   -0.00197   -0.00156   -0.00106
 18 Si    0.00001    0.00005    0.00154
 19 Si   -0.00019   -0.00032   -0.00095
 20 Si   -0.00009    0.00658    0.00015
 21 Si    0.02329   -0.03591    0.02340
 22 Si    0.00195   -0.00111    0.00340
 23 Si   -0.00055   -0.00073   -0.00229
 24 Si   -0.00089   -0.00058    0.00349
 25 Si   -0.02670   -0.03660    0.02440
 26 Si    0.00455    0.14083    0.00107
 27 Si   -0.02604   -0.03627   -0.02593
 28 Si   -0.00087   -0.00054   -0.00129
 29 Si   -0.00107   -0.00131   -0.00110
 30 Si   -0.00123   -0.00048    0.00276
 31 Si   -0.00105   -0.00115   -0.00150
 32 Si    0.00228    0.00499    0.00252
 33 Si   -0.00058   -0.00414   -0.00151
 34 Si    0.00032    0.00036    0.00160
 35 Si   -0.00061   -0.00089   -0.00060
 36 Si    0.00186    0.00020    0.00087
 37 Si   -0.00025   -0.00090   -0.00152
 38 Si    0.00307   -0.00101    0.00189
 39 Si   -0.00184    0.00001   -0.00100
 40 Si    0.00051    0.00138    0.00130
 41 Si   -0.00193   -0.00159   -0.00111
 42 Si    0.00229    0.00501   -0.00032
 43 Si   -0.00105   -0.00116   -0.00069
 44 Si   -0.00123   -0.00044   -0.00053
 45 Si   -0.00061   -0.00090   -0.00158
 46 Si    0.00032    0.00036    0.00060
 47 Si   -0.00058   -0.00416   -0.00067
 48 Si    0.00074    0.00041    0.00108
 49 Si   -0.00154   -0.00122   -0.00149
 50 Si    0.00169    0.00073    0.00023
 51 Si   -0.00009   -0.00047   -0.00110
 52 Si    0.00170    0.00073    0.00197
 53 Si   -0.00157   -0.00125   -0.00075

System changes: positions 

Initializing position-dependent things.

Density initialized from wave functions
                                                      
                                                      
                                                      
                                                      
                                             Si       
                                    Si                
                                         Si           
                            Si        Si              
                                Si                    
                              Si           Si         
                     Si Si     Si SSi                 
                          Si           Si             
                       Si Si        Si                
                 Si        Si  Si                     
               Si           Si           Si           
                   SSiSi      SiSSi                   
           Si           Si           Si               
                     Si  Si        Si                 
                Si        Si Si                       
             Si           Si                          
                 SSi Si     Si Si                     
         Si           Si                              
                    Si                                
              Si        Si                            
           Si                                         
                Si                                    
       Si                                             
                                                      
                                                      
                                                      
                                                      

Positions:
   0 Si     0.000000    0.000000    0.000000    ( 0.0000,  0.0000,  0.0000)
   1 Si     1.357500    1.357500    1.357500    ( 0.0000,  0.0000,  0.0000)
   2 Si     2.715000    2.715000    0.000000    ( 0.0000,  0.0000,  0.0000)
   3 Si     4.072500    4.072500    1.357500    ( 0.0000,  0.0000,  0.0000)
   4 Si     5.430000    5.430000    0.000000    ( 0.0000,  0.0000,  0.0000)
   5 Si     6.787500    6.787500    1.357500    ( 0.0000,  0.0000,  0.0000)
   6 Si     2.715000    0.000000    2.715000    ( 0.0000,  0.0000,  0.0000)
   7 Si     4.072500    1.357500    4.072500    ( 0.0000,  0.0000,  0.0000)
   8 Si     5.430000    2.715000    2.715000    ( 0.0000,  0.0000,  0.0000)
   9 Si     6.787500    4.072500    4.072500    ( 0.0000,  0.0000,  0.0000)
  10 Si     8.145000    5.430000    2.715000    ( 0.0000,  0.0000,  0.0000)
  11 Si     9.502500    6.787500    4.072500    ( 0.0000,  0.0000,  0.0000)
  12 Si     5.430000    0.000000    5.430000    ( 0.0000,  0.0000,  0.0000)
  13 Si     6.787500    1.357500    6.787500    ( 0.0000,  0.0000,  0.0000)
  14 Si     8.145000    2.715000    5.430000    ( 0.0000,  0.0000,  0.0000)
  15 Si     9.502500    4.072500    6.787500    ( 0.0000,  0.0000,  0.0000)
  16 Si    10.860000    5.430000    5.430000    ( 0.0000,  0.0000,  0.0000)
  17 Si    12.217500    6.787500    6.787500    ( 0.0000,  0.0000,  0.0000)
  18 Si     0.000000    2.715000    2.715000    ( 0.0000,  0.0000,  0.0000)
  19 Si     1.357500    4.072500    4.072500    ( 0.0000,  0.0000,  0.0000)
  20 Si     2.715000    5.430000    2.715000    ( 0.0000,  0.0000,  0.0000)
  21 Si     4.072500    6.787500    4.072500    ( 0.0000,  0.0000,  0.0000)
  22 Si     5.430000    8.145000    2.715000    ( 0.0000,  0.0000,  0.0000)
  23 Si     6.787500    9.502500    4.072500    ( 0.0000,  0.0000,  0.0000)
  24 Si     2.715000    2.715000    5.430000    ( 0.0000,  0.0000,  0.0000)
  25 Si     4.072500    4.072500    6.787500    ( 0.0000,  0.0000,  0.0000)
  26 Si     5.430000    5.440000    5.430000    ( 0.0000,  0.0000,  0.0000)
  27 Si     6.787500    6.787500    6.787500    ( 0.0000,  0.0000,  0.0000)
  28 Si     8.145000    8.145000    5.430000    ( 0.0000,  0.0000,  0.0000)
  29 Si     9.502500    9.502500    6.787500    ( 0.0000,  0.0000,  0.0000)
  30 Si     5.430000    2.715000    8.145000    ( 0.0000,  0.0000,  0.0000)
  31 Si     6.787500    4.072500    9.502500    ( 0.0000,  0.0000,  0.0000)
  32 Si     8.145000    5.430000    8.145000    ( 0.0000,  0.0000,  0.0000)
  33 Si     9.502500    6.787500    9.502500    ( 0.0000,  0.0000,  0.0000)
  34 Si    10.860000    8.145000    8.145000    ( 0.0000,  0.0000,  0.0000)
  35 Si    12.217500    9.502500    9.502500    ( 0.0000,  0.0000,  0.0000)
  36 Si     0.000000    5.430000    5.430000    ( 0.0000,  0.0000,  0.0000)
  37 Si     1.357500    6.787500    6.787500    ( 0.0000,  0.0000,  0.0000)
  38 Si     2.715000    8.145000    5.430000    ( 0.0000,  0.0000,  0.0000)
  39 Si     4.072500    9.502500    6.787500    ( 0.0000,  0.0000,  0.0000)
  40 Si     5.430000   10.860000    5.430000    ( 0.0000,  0.0000,  0.0000)
  41 Si     6.787500   12.217500    6.787500    ( 0.0000,  0.0000,  0.0000)
  42 Si     2.715000    5.430000    8.145000    ( 0.0000,  0.0000,  0.0000)
  43 Si     4.072500    6.787500    9.502500    ( 0.0000,  0.0000,  0.0000)
  44 Si     5.430000    8.145000    8.145000    ( 0.0000,  0.0000,  0.0000)
  45 Si     6.787500    9.502500    9.502500    ( 0.0000,  0.0000,  0.0000)
  46 Si     8.145000   10.860000    8.145000    ( 0.0000,  0.0000,  0.0000)
  47 Si     9.502500   12.217500    9.502500    ( 0.0000,  0.0000,  0.0000)
  48 Si     5.430000    5.430000   10.860000    ( 0.0000,  0.0000,  0.0000)
  49 Si     6.787500    6.787500   12.217500    ( 0.0000,  0.0000,  0.0000)
  50 Si     8.145000    8.145000   10.860000    ( 0.0000,  0.0000,  0.0000)
  51 Si     9.502500    9.502500   12.217500    ( 0.0000,  0.0000,  0.0000)
  52 Si    10.860000   10.860000   10.860000    ( 0.0000,  0.0000,  0.0000)
  53 Si    12.217500   12.217500   12.217500    ( 0.0000,  0.0000,  0.0000)

Unit cell:
           periodic     x           y           z      points  spacing
  1. axis:    yes    0.000000    8.145000    8.145000    48     0.1959
  2. axis:    yes    8.145000    0.000000    8.145000    48     0.1959
  3. axis:    yes    8.145000    8.145000    0.000000    48     0.1959

  Lengths:  11.518769  11.518769  11.518769
  Angles:   60.000000  60.000000  60.000000

Effective grid spacing dv^(1/3) = 0.2138

     iter     time        total  log10-change:
                         energy   eigst   dens
iter:   1 13:07:27  -285.806428        c
iter:   2 13:07:56  -285.806242        c -3.47
iter:   3 13:08:24  -285.805862c       c -3.56
iter:   4 13:08:53  -285.805812c       c -3.70
iter:   5 13:09:23  -285.805808c       c -4.06c

Converged after 5 iterations.

Dipole moment: (-107.172704, -107.170759, -107.172683) |e|*Ang

Energy contributions relative to reference atoms: (reference = -425862.589512)

Kinetic:       +382.779365
Potential:     -333.015838
External:        +0.000000
XC:            -335.139149
Entropy (-ST):   -0.021539
Local:           -0.419417
SIC:             +0.000000
--------------------------
Free energy:   -285.816577
Extrapolated:  -285.805808

Showing only first 2 kpts
 Kpt  Band  Eigenvalues  Occupancy
  0   106      5.30713    1.90698
  0   107      5.30917    1.90515
  0   108      6.09348    0.01564
  0   109      6.09383    0.01559

  1   106      5.06571    1.99131
  1   107      5.06828    1.99109
  1   108      6.34848    0.00123
  1   109      6.34998    0.00121


Fermi level: 5.60917

Gap: 0.650 eV
Transition (v -> c):
  (s=0, k=0, n=107, [0.00, 0.00, 0.00]) -> (s=0, k=4, n=108, [0.00, 0.33, 0.33])
Direct/indirect transitions are different
Direct gap: 0.784 eV
Transition at: (s=0, k=0, n=107, [0.00, 0.00, 0.00])

Forces in eV/Ang:
  0 Si   -0.00036    0.00180   -0.00036
  1 Si   -0.00114    0.00017   -0.00110
  2 Si   -0.00039    0.00178    0.00258
  3 Si   -0.00144   -0.00152   -0.00082
  4 Si    0.00154    0.00252    0.00114
  5 Si   -0.00144   -0.00152   -0.00139
  6 Si    0.00252    0.00183    0.00253
  7 Si   -0.00205   -0.00271   -0.00209
  8 Si   -0.00125    0.00296    0.00275
  9 Si   -0.02577    0.03425    0.02370
 10 Si    0.00258   -0.00281   -0.00037
 11 Si   -0.00091   -0.00152   -0.00070
 12 Si    0.00117    0.00007    0.00110
 13 Si   -0.00009   -0.00272   -0.00013
 14 Si   -0.00060    0.00302    0.00349
 15 Si   -0.00147   -0.00148   -0.00075
 16 Si    0.00098    0.00252    0.00073
 17 Si   -0.00077   -0.00015   -0.00139
 18 Si    0.00254    0.00180   -0.00036
 19 Si   -0.00092   -0.00152   -0.00149
 20 Si    0.00254   -0.00283    0.00253
 21 Si   -0.02643    0.03458   -0.02654
 22 Si   -0.00125    0.00303   -0.00061
 23 Si   -0.00205   -0.00270   -0.00010
 24 Si    0.00273    0.00292   -0.00132
 25 Si    0.02368    0.03411   -0.02575
 26 Si    0.00130   -0.14171    0.00112
 27 Si    0.02431    0.03444    0.02419
 28 Si    0.00278    0.00298    0.00352
 29 Si   -0.00030   -0.00186   -0.00110
 30 Si    0.00356    0.00298   -0.00057
 31 Si   -0.00070   -0.00149   -0.00137
 32 Si   -0.00042   -0.00280   -0.00044
 33 Si   -0.00113    0.00149   -0.00113
 34 Si    0.00188    0.00167    0.00025
 35 Si   -0.00109   -0.00183   -0.00192
 36 Si    0.00107    0.00252    0.00147
 37 Si   -0.00148   -0.00148   -0.00145
 38 Si   -0.00065    0.00309   -0.00130
 39 Si   -0.00009   -0.00271   -0.00207
 40 Si    0.00117   -0.00002    0.00110
 41 Si   -0.00071   -0.00021   -0.00074
 42 Si   -0.00046   -0.00278    0.00267
 43 Si   -0.00069   -0.00149   -0.00082
 44 Si    0.00357    0.00304    0.00282
 45 Si   -0.00109   -0.00183   -0.00027
 46 Si    0.00188    0.00167    0.00194
 47 Si   -0.00113    0.00147   -0.00107
 48 Si    0.00080    0.00252    0.00105
 49 Si   -0.00139   -0.00018   -0.00077
 50 Si    0.00022    0.00170    0.00191
 51 Si   -0.00195   -0.00180   -0.00110
 52 Si    0.00023    0.00170    0.00029
 53 Si   -0.00146   -0.00025   -0.00149

System changes: positions 

Initializing position-dependent things.

Density initialized from wave functions
                                                      
                                                      
                                                      
                                                      
                                             Si       
                                    Si                
                                         Si           
                            Si        Si              
                                Si                    
                              Si           Si         
                     Si Si     Si SSi                 
                          Si           Si             
                       Si Si        Si                
                 Si        Si  Si                     
               Si           Si           Si           
                   SSiSi      SiSSi                   
           Si           Si           Si               
                     Si  Si        Si                 
                Si        Si Si                       
             Si           Si                          
                 SSi Si     Si Si                     
         Si           Si                              
                    Si                                
              Si        Si                            
           Si                                         
                Si                                    
       Si                                             
                                                      
                                                      
                                                      
                                                      

Positions:
   0 Si     0.000000    0.000000    0.000000    ( 0.0000,  0.0000,  0.0000)
   1 Si     1.357500    1.357500    1.357500    ( 0.0000,  0.0000,  0.0000)
   2 Si     2.715000    2.715000    0.000000    ( 0.0000,  0.0000,  0.0000)
   3 Si     4.072500    4.072500    1.357500    ( 0.0000,  0.0000,  0.0000)
   4 Si     5.430000    5.430000    0.000000    ( 0.0000,  0.0000,  0.0000)
   5 Si     6.787500    6.787500    1.357500    ( 0.0000,  0.0000,  0.0000)
   6 Si     2.715000    0.000000    2.715000    ( 0.0000,  0.0000,  0.0000)
   7 Si     4.072500    1.357500    4.072500    ( 0.0000,  0.0000,  0.0000)
   8 Si     5.430000    2.715000    2.715000    ( 0.0000,  0.0000,  0.0000)
   9 Si     6.787500    4.072500    4.072500    ( 0.0000,  0.0000,  0.0000)
  10 Si     8.145000    5.430000    2.715000    ( 0.0000,  0.0000,  0.0000)
  11 Si     9.502500    6.787500    4.072500    ( 0.0000,  0.0000,  0.0000)
  12 Si     5.430000    0.000000    5.430000    ( 0.0000,  0.0000,  0.0000)
  13 Si     6.787500    1.357500    6.787500    ( 0.0000,  0.0000,  0.0000)
  14 Si     8.145000    2.715000    5.430000    ( 0.0000,  0.0000,  0.0000)
  15 Si     9.502500    4.072500    6.787500    ( 0.0000,  0.0000,  0.0000)
  16 Si    10.860000    5.430000    5.430000    ( 0.0000,  0.0000,  0.0000)
  17 Si    12.217500    6.787500    6.787500    ( 0.0000,  0.0000,  0.0000)
  18 Si     0.000000    2.715000    2.715000    ( 0.0000,  0.0000,  0.0000)
  19 Si     1.357500    4.072500    4.072500    ( 0.0000,  0.0000,  0.0000)
  20 Si     2.715000    5.430000    2.715000    ( 0.0000,  0.0000,  0.0000)
  21 Si     4.072500    6.787500    4.072500    ( 0.0000,  0.0000,  0.0000)
  22 Si     5.430000    8.145000    2.715000    ( 0.0000,  0.0000,  0.0000)
  23 Si     6.787500    9.502500    4.072500    ( 0.0000,  0.0000,  0.0000)
  24 Si     2.715000    2.715000    5.430000    ( 0.0000,  0.0000,  0.0000)
  25 Si     4.072500    4.072500    6.787500    ( 0.0000,  0.0000,  0.0000)
  26 Si     5.430000    5.430000    5.420000    ( 0.0000,  0.0000,  0.0000)
  27 Si     6.787500    6.787500    6.787500    ( 0.0000,  0.0000,  0.0000)
  28 Si     8.145000    8.145000    5.430000    ( 0.0000,  0.0000,  0.0000)
  29 Si     9.502500    9.502500    6.787500    ( 0.0000,  0.0000,  0.0000)
  30 Si     5.430000    2.715000    8.145000    ( 0.0000,  0.0000,  0.0000)
  31 Si     6.787500    4.072500    9.502500    ( 0.0000,  0.0000,  0.0000)
  32 Si     8.145000    5.430000    8.145000    ( 0.0000,  0.0000,  0.0000)
  33 Si     9.502500    6.787500    9.502500    ( 0.0000,  0.0000,  0.0000)
  34 Si    10.860000    8.145000    8.145000    ( 0.0000,  0.0000,  0.0000)
  35 Si    12.217500    9.502500    9.502500    ( 0.0000,  0.0000,  0.0000)
  36 Si     0.000000    5.430000    5.430000    ( 0.0000,  0.0000,  0.0000)
  37 Si     1.357500    6.787500    6.787500    ( 0.0000,  0.0000,  0.0000)
  38 Si     2.715000    8.145000    5.430000    ( 0.0000,  0.0000,  0.0000)
  39 Si     4.072500    9.502500    6.787500    ( 0.0000,  0.0000,  0.0000)
  40 Si     5.430000   10.860000    5.430000    ( 0.0000,  0.0000,  0.0000)
  41 Si     6.787500   12.217500    6.787500    ( 0.0000,  0.0000,  0.0000)
  42 Si     2.715000    5.430000    8.145000    ( 0.0000,  0.0000,  0.0000)
  43 Si     4.072500    6.787500    9.502500    ( 0.0000,  0.0000,  0.0000)
  44 Si     5.430000    8.145000    8.145000    ( 0.0000,  0.0000,  0.0000)
  45 Si     6.787500    9.502500    9.502500    ( 0.0000,  0.0000,  0.0000)
  46 Si     8.145000   10.860000    8.145000    ( 0.0000,  0.0000,  0.0000)
  47 Si     9.502500   12.217500    9.502500    ( 0.0000,  0.0000,  0.0000)
  48 Si     5.430000    5.430000   10.860000    ( 0.0000,  0.0000,  0.0000)
  49 Si     6.787500    6.787500   12.217500    ( 0.0000,  0.0000,  0.0000)
  50 Si     8.145000    8.145000   10.860000    ( 0.0000,  0.0000,  0.0000)
  51 Si     9.502500    9.502500   12.217500    ( 0.0000,  0.0000,  0.0000)
  52 Si    10.860000   10.860000   10.860000    ( 0.0000,  0.0000,  0.0000)
  53 Si    12.217500   12.217500   12.217500    ( 0.0000,  0.0000,  0.0000)

Unit cell:
           periodic     x           y           z      points  spacing
  1. axis:    yes    0.000000    8.145000    8.145000    48     0.1959
  2. axis:    yes    8.145000    0.000000    8.145000    48     0.1959
  3. axis:    yes    8.145000    8.145000    0.000000    48     0.1959

  Lengths:  11.518769  11.518769  11.518769
  Angles:   60.000000  60.000000  60.000000

Effective grid spacing dv^(1/3) = 0.2138

     iter     time        total  log10-change:
                         energy   eigst   dens
iter:   1 13:12:10  -285.806107        c
iter:   2 13:12:40  -285.806009        c -3.61
iter:   3 13:13:10  -285.805813c       c -3.70
iter:   4 13:13:39  -285.805788c       c -3.87
iter:   5 13:14:08  -285.805785c       c -4.22c

Converged after 5 iterations.

Dipole moment: (-107.172688, -107.173369, -107.173943) |e|*Ang

Energy contributions relative to reference atoms: (reference = -425862.589512)

Kinetic:       +382.779409
Potential:     -333.015789
External:        +0.000000
XC:            -335.139153
Entropy (-ST):   -0.021538
Local:           -0.419484
SIC:             +0.000000
--------------------------
Free energy:   -285.816554
Extrapolated:  -285.805785

Showing only first 2 kpts
 Kpt  Band  Eigenvalues  Occupancy
  0   106      5.30699    1.90710
  0   107      5.30874    1.90554
  0   108      6.09350    0.01564
  0   109      6.09382    0.01559

  1   106      5.06620    1.99127
  1   107      5.06778    1.99113
  1   108      6.34842    0.00123
  1   109      6.34989    0.00121


Fermi level: 5.60917

Gap: 0.650 eV
Transition (v -> c):
  (s=0, k=0, n=107, [0.00, 0.00, 0.00]) -> (s=0, k=12, n=108, [0.33, 0.33, 0.00])
Direct/indirect transitions are different
Direct gap: 0.785 eV
Transition at: (s=0, k=0, n=107, [0.00, 0.00, 0.00])

Forces in eV/Ang:
  0 Si    0.00259    0.00195    0.00109
  1 Si   -0.00110   -0.00190   -0.00160
  2 Si    0.00065    0.00000    0.00004
  3 Si    0.00009   -0.00053   -0.00074
  4 Si    0.00087    0.00050    0.00144
  5 Si   -0.00122   -0.00183    0.00002
  6 Si    0.00154    0.00000    0.00005
  7 Si   -0.00095   -0.00019   -0.00031
  8 Si    0.00349   -0.00089   -0.00058
  9 Si    0.02439   -0.02669   -0.03660
 10 Si    0.00277   -0.00123   -0.00047
 11 Si   -0.00149   -0.00106   -0.00115
 12 Si    0.00085    0.00186    0.00020
 13 Si   -0.00153   -0.00025   -0.00090
 14 Si   -0.00032    0.00229    0.00501
 15 Si   -0.00067   -0.00105   -0.00117
 16 Si    0.00108    0.00074    0.00041
 17 Si   -0.00150   -0.00154   -0.00123
 18 Si   -0.00037    0.00191    0.00107
 19 Si   -0.00142   -0.00132   -0.00007
 20 Si   -0.00122    0.00197   -0.00115
 21 Si   -0.02623    0.02392   -0.03625
 22 Si    0.00028    0.00309   -0.00104
 23 Si   -0.00069   -0.00026   -0.00090
 24 Si    0.00016   -0.00009    0.00658
 25 Si    0.02340    0.02328   -0.03591
 26 Si    0.00107    0.00453    0.14081
 27 Si   -0.02592   -0.02604   -0.03627
 28 Si    0.00253    0.00228    0.00498
 29 Si   -0.00150   -0.00059   -0.00414
 30 Si    0.00188    0.00307   -0.00102
 31 Si   -0.00100   -0.00184    0.00001
 32 Si   -0.00052   -0.00123   -0.00044
 33 Si   -0.00157   -0.00061   -0.00090
 34 Si    0.00023    0.00169    0.00073
 35 Si   -0.00110   -0.00009   -0.00048
 36 Si    0.00113    0.00028   -0.00000
 37 Si   -0.00074   -0.00133   -0.00008
 38 Si    0.00205   -0.00008    0.00659
 39 Si   -0.00125   -0.00018   -0.00034
 40 Si    0.00130    0.00181    0.00021
 41 Si   -0.00107   -0.00197   -0.00156
 42 Si    0.00340    0.00195   -0.00110
 43 Si   -0.00229   -0.00055   -0.00073
 44 Si   -0.00130   -0.00086   -0.00054
 45 Si   -0.00110   -0.00107   -0.00131
 46 Si    0.00160    0.00032    0.00037
 47 Si   -0.00059   -0.00061   -0.00089
 48 Si    0.00128    0.00052    0.00138
 49 Si   -0.00113   -0.00193   -0.00160
 50 Si    0.00060    0.00033    0.00036
 51 Si   -0.00066   -0.00057   -0.00416
 52 Si    0.00197    0.00170    0.00074
 53 Si   -0.00076   -0.00157   -0.00125

System changes: positions 

Initializing position-dependent things.

Density initialized from wave functions
                                                      
                                                      
                                                      
                                                      
                                             Si       
                                    Si                
                                         Si           
                            Si        Si              
                                Si                    
                              Si           Si         
                     Si Si     Si SSi                 
                          Si           Si             
                       Si Si        Si                
                 Si        Si  Si                     
               Si           Si           Si           
                   SSiSi      SiSSi                   
           Si           Si           Si               
                     Si  Si        Si                 
                Si        Si Si                       
             Si           Si                          
                 SSi Si     Si Si                     
         Si           Si                              
                    Si                                
              Si        Si                            
           Si                                         
                Si                                    
       Si                                             
                                                      
                                                      
                                                      
                                                      

Positions:
   0 Si     0.000000    0.000000    0.000000    ( 0.0000,  0.0000,  0.0000)
   1 Si     1.357500    1.357500    1.357500    ( 0.0000,  0.0000,  0.0000)
   2 Si     2.715000    2.715000    0.000000    ( 0.0000,  0.0000,  0.0000)
   3 Si     4.072500    4.072500    1.357500    ( 0.0000,  0.0000,  0.0000)
   4 Si     5.430000    5.430000    0.000000    ( 0.0000,  0.0000,  0.0000)
   5 Si     6.787500    6.787500    1.357500    ( 0.0000,  0.0000,  0.0000)
   6 Si     2.715000    0.000000    2.715000    ( 0.0000,  0.0000,  0.0000)
   7 Si     4.072500    1.357500    4.072500    ( 0.0000,  0.0000,  0.0000)
   8 Si     5.430000    2.715000    2.715000    ( 0.0000,  0.0000,  0.0000)
   9 Si     6.787500    4.072500    4.072500    ( 0.0000,  0.0000,  0.0000)
  10 Si     8.145000    5.430000    2.715000    ( 0.0000,  0.0000,  0.0000)
  11 Si     9.502500    6.787500    4.072500    ( 0.0000,  0.0000,  0.0000)
  12 Si     5.430000    0.000000    5.430000    ( 0.0000,  0.0000,  0.0000)
  13 Si     6.787500    1.357500    6.787500    ( 0.0000,  0.0000,  0.0000)
  14 Si     8.145000    2.715000    5.430000    ( 0.0000,  0.0000,  0.0000)
  15 Si     9.502500    4.072500    6.787500    ( 0.0000,  0.0000,  0.0000)
  16 Si    10.860000    5.430000    5.430000    ( 0.0000,  0.0000,  0.0000)
  17 Si    12.217500    6.787500    6.787500    ( 0.0000,  0.0000,  0.0000)
  18 Si     0.000000    2.715000    2.715000    ( 0.0000,  0.0000,  0.0000)
  19 Si     1.357500    4.072500    4.072500    ( 0.0000,  0.0000,  0.0000)
  20 Si     2.715000    5.430000    2.715000    ( 0.0000,  0.0000,  0.0000)
  21 Si     4.072500    6.787500    4.072500    ( 0.0000,  0.0000,  0.0000)
  22 Si     5.430000    8.145000    2.715000    ( 0.0000,  0.0000,  0.0000)
  23 Si     6.787500    9.502500    4.072500    ( 0.0000,  0.0000,  0.0000)
  24 Si     2.715000    2.715000    5.430000    ( 0.0000,  0.0000,  0.0000)
  25 Si     4.072500    4.072500    6.787500    ( 0.0000,  0.0000,  0.0000)
  26 Si     5.430000    5.430000    5.440000    ( 0.0000,  0.0000,  0.0000)
  27 Si     6.787500    6.787500    6.787500    ( 0.0000,  0.0000,  0.0000)
  28 Si     8.145000    8.145000    5.430000    ( 0.0000,  0.0000,  0.0000)
  29 Si     9.502500    9.502500    6.787500    ( 0.0000,  0.0000,  0.0000)
  30 Si     5.430000    2.715000    8.145000    ( 0.0000,  0.0000,  0.0000)
  31 Si     6.787500    4.072500    9.502500    ( 0.0000,  0.0000,  0.0000)
  32 Si     8.145000    5.430000    8.145000    ( 0.0000,  0.0000,  0.0000)
  33 Si     9.502500    6.787500    9.502500    ( 0.0000,  0.0000,  0.0000)
  34 Si    10.860000    8.145000    8.145000    ( 0.0000,  0.0000,  0.0000)
  35 Si    12.217500    9.502500    9.502500    ( 0.0000,  0.0000,  0.0000)
  36 Si     0.000000    5.430000    5.430000    ( 0.0000,  0.0000,  0.0000)
  37 Si     1.357500    6.787500    6.787500    ( 0.0000,  0.0000,  0.0000)
  38 Si     2.715000    8.145000    5.430000    ( 0.0000,  0.0000,  0.0000)
  39 Si     4.072500    9.502500    6.787500    ( 0.0000,  0.0000,  0.0000)
  40 Si     5.430000   10.860000    5.430000    ( 0.0000,  0.0000,  0.0000)
  41 Si     6.787500   12.217500    6.787500    ( 0.0000,  0.0000,  0.0000)
  42 Si     2.715000    5.430000    8.145000    ( 0.0000,  0.0000,  0.0000)
  43 Si     4.072500    6.787500    9.502500    ( 0.0000,  0.0000,  0.0000)
  44 Si     5.430000    8.145000    8.145000    ( 0.0000,  0.0000,  0.0000)
  45 Si     6.787500    9.502500    9.502500    ( 0.0000,  0.0000,  0.0000)
  46 Si     8.145000   10.860000    8.145000    ( 0.0000,  0.0000,  0.0000)
  47 Si     9.502500   12.217500    9.502500    ( 0.0000,  0.0000,  0.0000)
  48 Si     5.430000    5.430000   10.860000    ( 0.0000,  0.0000,  0.0000)
  49 Si     6.787500    6.787500   12.217500    ( 0.0000,  0.0000,  0.0000)
  50 Si     8.145000    8.145000   10.860000    ( 0.0000,  0.0000,  0.0000)
  51 Si     9.502500    9.502500   12.217500    ( 0.0000,  0.0000,  0.0000)
  52 Si    10.860000   10.860000   10.860000    ( 0.0000,  0.0000,  0.0000)
  53 Si    12.217500   12.217500   12.217500    ( 0.0000,  0.0000,  0.0000)

Unit cell:
           periodic     x           y           z      points  spacing
  1. axis:    yes    0.000000    8.145000    8.145000    48     0.1959
  2. axis:    yes    8.145000    0.000000    8.145000    48     0.1959
  3. axis:    yes    8.145000    8.145000    0.000000    48     0.1959

  Lengths:  11.518769  11.518769  11.518769
  Angles:   60.000000  60.000000  60.000000

Effective grid spacing dv^(1/3) = 0.2138

     iter     time        total  log10-change:
                         energy   eigst   dens
iter:   1 13:16:53  -285.806429        c
iter:   2 13:17:22  -285.806242        c -3.46
iter:   3 13:17:51  -285.805862c       c -3.56
iter:   4 13:18:21  -285.805812c       c -3.70
iter:   5 13:18:50  -285.805808c       c -4.06c

Converged after 5 iterations.

Dipole moment: (-107.172684, -107.172704, -107.170759) |e|*Ang

Energy contributions relative to reference atoms: (reference = -425862.589512)

Kinetic:       +382.779365
Potential:     -333.015838
External:        +0.000000
XC:            -335.139149
Entropy (-ST):   -0.021539
Local:           -0.419417
SIC:             +0.000000
--------------------------
Free energy:   -285.816577
Extrapolated:  -285.805808

Showing only first 2 kpts
 Kpt  Band  Eigenvalues  Occupancy
  0   106      5.30713    1.90698
  0   107      5.30917    1.90515
  0   108      6.09348    0.01564
  0   109      6.09383    0.01559

  1   106      5.06654    1.99124
  1   107      5.06939    1.99099
  1   108      6.34909    0.00122
  1   109      6.35004    0.00121


Fermi level: 5.60917

Gap: 0.650 eV
Transition (v -> c):
  (s=0, k=0, n=107, [0.00, 0.00, 0.00]) -> (s=0, k=10, n=108, [0.33, 0.00, 0.33])
Direct/indirect transitions are different
Direct gap: 0.784 eV
Transition at: (s=0, k=0, n=107, [0.00, 0.00, 0.00])

Forces in eV/Ang:
  0 Si   -0.00036   -0.00036    0.00180
  1 Si   -0.00110   -0.00114    0.00017
  2 Si    0.00253    0.00252    0.00183
  3 Si   -0.00209   -0.00205   -0.00271
  4 Si    0.00110    0.00117    0.00007
  5 Si   -0.00013   -0.00009   -0.00272
  6 Si   -0.00036    0.00254    0.00180
  7 Si   -0.00149   -0.00092   -0.00152
  8 Si   -0.00132    0.00273    0.00292
  9 Si   -0.02575    0.02368    0.03411
 10 Si   -0.00057    0.00356    0.00298
 11 Si   -0.00137   -0.00070   -0.00149
 12 Si    0.00147    0.00107    0.00252
 13 Si   -0.00145   -0.00148   -0.00148
 14 Si    0.00267   -0.00045   -0.00278
 15 Si   -0.00082   -0.00069   -0.00149
 16 Si    0.00105    0.00080    0.00252
 17 Si   -0.00077   -0.00139   -0.00018
 18 Si    0.00258   -0.00039    0.00178
 19 Si   -0.00082   -0.00144   -0.00152
 20 Si    0.00275   -0.00125    0.00296
 21 Si    0.02370   -0.02577    0.03424
 22 Si    0.00349   -0.00060    0.00302
 23 Si   -0.00075   -0.00147   -0.00148
 24 Si    0.00252    0.00254   -0.00283
[...]
  47 Si     9.502500   12.217500    9.502500    ( 0.0000,  0.0000,  0.0000)
  48 Si     5.430000    5.430000   10.860000    ( 0.0000,  0.0000,  0.0000)
  49 Si     6.787500    6.787500   12.217500    ( 0.0000,  0.0000,  0.0000)
  50 Si     8.145000    8.145000   10.860000    ( 0.0000,  0.0000,  0.0000)
  51 Si     9.502500    9.502500   12.217500    ( 0.0000,  0.0000,  0.0000)
  52 Si    10.860000   10.860000   10.860000    ( 0.0000,  0.0000,  0.0000)
  53 Si    12.217500   12.217500   12.217500    ( 0.0000,  0.0000,  0.0000)

Unit cell:
           periodic     x           y           z      points  spacing
  1. axis:    yes    0.000000    8.145000    8.145000    48     0.1959
  2. axis:    yes    8.145000    0.000000    8.145000    48     0.1959
  3. axis:    yes    8.145000    8.145000    0.000000    48     0.1959

  Lengths:  11.518769  11.518769  11.518769
  Angles:   60.000000  60.000000  60.000000

Effective grid spacing dv^(1/3) = 0.2138

     iter     time        total  log10-change:
                         energy   eigst   dens
iter:   1 13:40:19  -285.806129        c
iter:   2 13:40:48  -285.806031        c -3.61
iter:   3 13:41:17  -285.805835c       c -3.70
iter:   4 13:41:45  -285.805810c       c -3.87
iter:   5 13:42:14  -285.805807c       c -4.22c

Converged after 5 iterations.

Dipole moment: (-107.172665, -107.172518, -107.173330) |e|*Ang

Energy contributions relative to reference atoms: (reference = -425862.589512)

Kinetic:       +382.779374
Potential:     -333.015788
External:        +0.000000
XC:            -335.139154
Entropy (-ST):   -0.021539
Local:           -0.419470
SIC:             +0.000000
--------------------------
Free energy:   -285.816576
Extrapolated:  -285.805807

Showing only first 2 kpts
 Kpt  Band  Eigenvalues  Occupancy
  0   106      5.30713    1.90698
  0   107      5.30917    1.90515
  0   108      6.09350    0.01564
  0   109      6.09382    0.01559

  1   106      5.06654    1.99124
  1   107      5.06940    1.99099
  1   108      6.34909    0.00122
  1   109      6.35004    0.00121


Fermi level: 5.60917

Gap: 0.650 eV
Transition (v -> c):
  (s=0, k=0, n=107, [0.00, 0.00, 0.00]) -> (s=0, k=12, n=108, [0.33, 0.33, 0.00])
Direct/indirect transitions are different
Direct gap: 0.784 eV
Transition at: (s=0, k=0, n=107, [0.00, 0.00, 0.00])

Forces in eV/Ang:
  0 Si    0.00148    0.00066    0.00098
  1 Si   -0.00023   -0.00050   -0.00147
  2 Si    0.00152    0.00162   -0.00194
  3 Si   -0.00159   -0.00187   -0.00184
  4 Si    0.00105    0.00023    0.00063
  5 Si   -0.00090   -0.00168   -0.00076
  6 Si    0.00159    0.00160    0.00130
  7 Si   -0.00060   -0.00188   -0.00183
  8 Si    0.00109    0.00112    0.00088
  9 Si   -0.00349   -0.00310   -0.00278
 10 Si   -0.00010    0.00166    0.00146
 11 Si    0.00124   -0.00024   -0.00335
 12 Si    0.00110    0.00026    0.00060
 13 Si   -0.00088   -0.00034   -0.00199
 14 Si    0.00095    0.00201    0.00187
 15 Si   -0.00014   -0.00229    0.00438
 16 Si    0.00145    0.00088    0.00213
 17 Si   -0.00112   -0.00191   -0.00220
 18 Si    0.00109    0.00210    0.00172
 19 Si   -0.00197   -0.00051   -0.00147
 20 Si    0.00061    0.00159    0.00130
 21 Si   -0.00276   -0.00343   -0.00268
 22 Si    0.00120    0.00036    0.00221
 23 Si   -0.00030    0.00090   -0.00324
 24 Si    0.00069    0.00161   -0.00196
 25 Si    0.00033    0.00009    0.00281
 26 Si   -0.02435   -0.02444   -0.03437
 27 Si   -0.00112    0.00233    0.13861
 28 Si    0.02622    0.02612   -0.03403
 29 Si   -0.00205   -0.00229    0.00439
 30 Si    0.00152    0.00193    0.00130
 31 Si   -0.00190    0.00087   -0.00321
 32 Si   -0.02341    0.02549   -0.03372
 33 Si   -0.00340   -0.00025   -0.00331
 34 Si    0.00076    0.00087    0.00212
 35 Si   -0.00257   -0.00026   -0.00111
 36 Si    0.00074    0.00062    0.00094
 37 Si   -0.00107   -0.00145   -0.00178
 38 Si    0.00152    0.00114    0.00105
 39 Si   -0.00251    0.00008    0.00279
 40 Si    0.00068    0.00194    0.00131
 41 Si   -0.00134   -0.00039   -0.00199
 42 Si    0.00070    0.00115    0.00103
 43 Si    0.00054   -0.00343   -0.00264
 44 Si    0.02592   -0.02384   -0.03406
 45 Si    0.00128   -0.00307   -0.00275
 46 Si    0.00123    0.00200    0.00186
 47 Si   -0.00064   -0.00220   -0.00214
 48 Si    0.00099    0.00036    0.00221
 49 Si   -0.00132   -0.00169   -0.00081
 50 Si    0.00228    0.00165    0.00145
 51 Si   -0.00153   -0.00218   -0.00215
 52 Si    0.00111    0.00030    0.00060
 53 Si    0.00038   -0.00028   -0.00112

System changes: positions 

Initializing position-dependent things.

Density initialized from wave functions
                                                      
                                                      
                                                      
                                                      
                                             Si       
                                    Si                
                                         Si           
                            Si        Si              
                                Si                    
                              Si           Si         
                     Si Si     Si SSi                 
                          Si           Si             
                       Si Si        Si                
                 Si        Si  Si                     
               Si           Si           Si           
                   SSiSi      SiSSi                   
           Si           Si           Si               
                     Si  Si        Si                 
                Si        Si Si                       
             Si           Si                          
                 SSi Si     Si Si                     
         Si           Si                              
                    Si                                
              Si        Si                            
           Si                                         
                Si                                    
       Si                                             
                                                      
                                                      
                                                      
                                                      

Positions:
   0 Si     0.000000    0.000000    0.000000    ( 0.0000,  0.0000,  0.0000)
   1 Si     1.357500    1.357500    1.357500    ( 0.0000,  0.0000,  0.0000)
   2 Si     2.715000    2.715000    0.000000    ( 0.0000,  0.0000,  0.0000)
   3 Si     4.072500    4.072500    1.357500    ( 0.0000,  0.0000,  0.0000)
   4 Si     5.430000    5.430000    0.000000    ( 0.0000,  0.0000,  0.0000)
   5 Si     6.787500    6.787500    1.357500    ( 0.0000,  0.0000,  0.0000)
   6 Si     2.715000    0.000000    2.715000    ( 0.0000,  0.0000,  0.0000)
   7 Si     4.072500    1.357500    4.072500    ( 0.0000,  0.0000,  0.0000)
   8 Si     5.430000    2.715000    2.715000    ( 0.0000,  0.0000,  0.0000)
   9 Si     6.787500    4.072500    4.072500    ( 0.0000,  0.0000,  0.0000)
  10 Si     8.145000    5.430000    2.715000    ( 0.0000,  0.0000,  0.0000)
  11 Si     9.502500    6.787500    4.072500    ( 0.0000,  0.0000,  0.0000)
  12 Si     5.430000    0.000000    5.430000    ( 0.0000,  0.0000,  0.0000)
  13 Si     6.787500    1.357500    6.787500    ( 0.0000,  0.0000,  0.0000)
  14 Si     8.145000    2.715000    5.430000    ( 0.0000,  0.0000,  0.0000)
  15 Si     9.502500    4.072500    6.787500    ( 0.0000,  0.0000,  0.0000)
  16 Si    10.860000    5.430000    5.430000    ( 0.0000,  0.0000,  0.0000)
  17 Si    12.217500    6.787500    6.787500    ( 0.0000,  0.0000,  0.0000)
  18 Si     0.000000    2.715000    2.715000    ( 0.0000,  0.0000,  0.0000)
  19 Si     1.357500    4.072500    4.072500    ( 0.0000,  0.0000,  0.0000)
  20 Si     2.715000    5.430000    2.715000    ( 0.0000,  0.0000,  0.0000)
  21 Si     4.072500    6.787500    4.072500    ( 0.0000,  0.0000,  0.0000)
  22 Si     5.430000    8.145000    2.715000    ( 0.0000,  0.0000,  0.0000)
  23 Si     6.787500    9.502500    4.072500    ( 0.0000,  0.0000,  0.0000)
  24 Si     2.715000    2.715000    5.430000    ( 0.0000,  0.0000,  0.0000)
  25 Si     4.072500    4.072500    6.787500    ( 0.0000,  0.0000,  0.0000)
  26 Si     5.430000    5.430000    5.430000    ( 0.0000,  0.0000,  0.0000)
  27 Si     6.787500    6.787500    6.797500    ( 0.0000,  0.0000,  0.0000)
  28 Si     8.145000    8.145000    5.430000    ( 0.0000,  0.0000,  0.0000)
  29 Si     9.502500    9.502500    6.787500    ( 0.0000,  0.0000,  0.0000)
  30 Si     5.430000    2.715000    8.145000    ( 0.0000,  0.0000,  0.0000)
  31 Si     6.787500    4.072500    9.502500    ( 0.0000,  0.0000,  0.0000)
  32 Si     8.145000    5.430000    8.145000    ( 0.0000,  0.0000,  0.0000)
  33 Si     9.502500    6.787500    9.502500    ( 0.0000,  0.0000,  0.0000)
  34 Si    10.860000    8.145000    8.145000    ( 0.0000,  0.0000,  0.0000)
  35 Si    12.217500    9.502500    9.502500    ( 0.0000,  0.0000,  0.0000)
  36 Si     0.000000    5.430000    5.430000    ( 0.0000,  0.0000,  0.0000)
  37 Si     1.357500    6.787500    6.787500    ( 0.0000,  0.0000,  0.0000)
  38 Si     2.715000    8.145000    5.430000    ( 0.0000,  0.0000,  0.0000)
  39 Si     4.072500    9.502500    6.787500    ( 0.0000,  0.0000,  0.0000)
  40 Si     5.430000   10.860000    5.430000    ( 0.0000,  0.0000,  0.0000)
  41 Si     6.787500   12.217500    6.787500    ( 0.0000,  0.0000,  0.0000)
  42 Si     2.715000    5.430000    8.145000    ( 0.0000,  0.0000,  0.0000)
  43 Si     4.072500    6.787500    9.502500    ( 0.0000,  0.0000,  0.0000)
  44 Si     5.430000    8.145000    8.145000    ( 0.0000,  0.0000,  0.0000)
  45 Si     6.787500    9.502500    9.502500    ( 0.0000,  0.0000,  0.0000)
  46 Si     8.145000   10.860000    8.145000    ( 0.0000,  0.0000,  0.0000)
  47 Si     9.502500   12.217500    9.502500    ( 0.0000,  0.0000,  0.0000)
  48 Si     5.430000    5.430000   10.860000    ( 0.0000,  0.0000,  0.0000)
  49 Si     6.787500    6.787500   12.217500    ( 0.0000,  0.0000,  0.0000)
  50 Si     8.145000    8.145000   10.860000    ( 0.0000,  0.0000,  0.0000)
  51 Si     9.502500    9.502500   12.217500    ( 0.0000,  0.0000,  0.0000)
  52 Si    10.860000   10.860000   10.860000    ( 0.0000,  0.0000,  0.0000)
  53 Si    12.217500   12.217500   12.217500    ( 0.0000,  0.0000,  0.0000)

Unit cell:
           periodic     x           y           z      points  spacing
  1. axis:    yes    0.000000    8.145000    8.145000    48     0.1959
  2. axis:    yes    8.145000    0.000000    8.145000    48     0.1959
  3. axis:    yes    8.145000    8.145000    0.000000    48     0.1959

  Lengths:  11.518769  11.518769  11.518769
  Angles:   60.000000  60.000000  60.000000

Effective grid spacing dv^(1/3) = 0.2138

     iter     time        total  log10-change:
                         energy   eigst   dens
iter:   1 13:44:59  -285.806407        c
iter:   2 13:45:28  -285.806220        c -3.47
iter:   3 13:45:56  -285.805841c       c -3.56
iter:   4 13:46:24  -285.805791c       c -3.70
iter:   5 13:46:53  -285.805786c       c -4.06c

Converged after 5 iterations.

Dipole moment: (-107.172658, -107.172687, -107.172241) |e|*Ang

Energy contributions relative to reference atoms: (reference = -425862.589512)

Kinetic:       +382.779400
Potential:     -333.015839
External:        +0.000000
XC:            -335.139147
Entropy (-ST):   -0.021538
Local:           -0.419431
SIC:             +0.000000
--------------------------
Free energy:   -285.816555
Extrapolated:  -285.805786

Showing only first 2 kpts
 Kpt  Band  Eigenvalues  Occupancy
  0   106      5.30699    1.90710
  0   107      5.30873    1.90554
  0   108      6.09348    0.01564
  0   109      6.09383    0.01559

  1   106      5.06621    1.99127
  1   107      5.06778    1.99113
  1   108      6.34842    0.00123
  1   109      6.34988    0.00121


Fermi level: 5.60917

Gap: 0.650 eV
Transition (v -> c):
  (s=0, k=0, n=107, [0.00, 0.00, 0.00]) -> (s=0, k=12, n=108, [0.33, 0.33, 0.00])
Direct/indirect transitions are different
Direct gap: 0.785 eV
Transition at: (s=0, k=0, n=107, [0.00, 0.00, 0.00])

Forces in eV/Ang:
  0 Si    0.00077    0.00081    0.00202
  1 Si   -0.00192   -0.00197   -0.00049
  2 Si    0.00113    0.00107    0.00369
  3 Si   -0.00025   -0.00031   -0.00052
  4 Si    0.00139    0.00142    0.00205
  5 Si   -0.00109   -0.00103   -0.00212
  6 Si    0.00027    0.00110    0.00037
  7 Si   -0.00194   -0.00031   -0.00052
  8 Si    0.00110    0.00190    0.00034
  9 Si    0.00132    0.00053    0.00072
 10 Si    0.00210    0.00014   -0.00052
 11 Si   -0.00275   -0.00344    0.00076
 12 Si    0.00074    0.00149    0.00199
 13 Si   -0.00146   -0.00113    0.00033
 14 Si    0.00149    0.00128    0.00067
 15 Si   -0.00252    0.00035   -0.00503
 16 Si    0.00082    0.00075    0.00068
 17 Si   -0.00114   -0.00066    0.00032
 18 Si    0.00110    0.00024    0.00040
 19 Si   -0.00029   -0.00197   -0.00049
 20 Si    0.00192    0.00110    0.00037
 21 Si    0.00057    0.00136    0.00078
 22 Si    0.00013    0.00211   -0.00053
 23 Si   -0.00349   -0.00279    0.00082
 24 Si    0.00107    0.00107    0.00367
 25 Si   -0.00267   -0.00265   -0.00498
 26 Si    0.02574    0.02586    0.03631
 27 Si   -0.00108   -0.00089   -0.14393
 28 Si   -0.02370   -0.02358    0.03645
 29 Si    0.00037    0.00039   -0.00501
 30 Si    0.00145    0.00071    0.00071
 31 Si    0.00130   -0.00284    0.00089
 32 Si    0.02656   -0.02424    0.03679
 33 Si    0.00061   -0.00345    0.00083
 34 Si    0.00139    0.00075    0.00068
 35 Si    0.00036   -0.00256   -0.00039
 36 Si    0.00149    0.00074    0.00195
 37 Si   -0.00106   -0.00140    0.00033
 38 Si    0.00136    0.00150    0.00071
 39 Si    0.00043   -0.00261   -0.00500
 40 Si    0.00075    0.00073    0.00072
 41 Si   -0.00073   -0.00122    0.00032
 42 Si    0.00081    0.00150    0.00071
 43 Si   -0.00282    0.00137    0.00084
 44 Si   -0.02423    0.02655    0.03666
 45 Si   -0.00352    0.00058    0.00078
 46 Si    0.00070    0.00129    0.00067
 47 Si   -0.00253    0.00033   -0.00037
 48 Si    0.00207    0.00211   -0.00051
 49 Si   -0.00110   -0.00103   -0.00222
 50 Si    0.00010    0.00014   -0.00050
 51 Si    0.00036    0.00035   -0.00039
 52 Si    0.00110    0.00106    0.00237
 53 Si   -0.00258   -0.00259   -0.00042

Writing to ./data/si_0.19_groundstate.gpw (mode='all')

Timing:                                       incl.     excl.
--------------------------------------------------------------------
Basic WFS set positions:                      0.106     0.008   0.0% |
 Redistribute:                                0.099     0.099   0.0% |
Basis functions set positions:                0.563     0.563   0.0% |
Forces:                                    1725.361     2.018   0.1% |
 LCAO forces:                              1723.343     1.337   0.0% |
  Atomic Hamiltonian force:                  54.161    54.161   1.4% ||
  Initial:                                    1.437     0.000   0.0% |
   Get density matrix:                        1.437     1.437   0.0% |
  Paw correction:                            42.163    42.163   1.1% |
  Potential:                               1603.606  1603.606  42.8% |----------------|
  TCI derivative:                            20.638    20.638   0.6% |
  Wait for sum:                               0.000     0.000   0.0% |
LCAO WFS Initialize:                        277.310     0.062   0.0% |
 Density initialized from wave functions:   270.924     0.434   0.0% |
  Calculate density matrix:                   0.490     0.490   0.0% |
  Construct density:                        270.000   270.000   7.2% |--|
  Symmetrize density:                         0.000     0.000   0.0% |
 Hamiltonian:                                 6.323     0.000   0.0% |
  Atomic:                                     4.632     0.013   0.0% |
   XC Correction:                             4.619     4.619   0.1% |
  Calculate atomic Hamiltonians:              0.150     0.150   0.0% |
  Communicate:                                0.000     0.000   0.0% |
  Hartree integrate/restrict:                 0.042     0.042   0.0% |
  Initialize Hamiltonian:                     0.000     0.000   0.0% |
  Poisson:                                    0.534     0.035   0.0% |
   Communicate from 1D:                       0.061     0.061   0.0% |
   Communicate from 2D:                       0.062     0.062   0.0% |
   Communicate to 1D:                         0.046     0.046   0.0% |
   Communicate to 2D:                         0.069     0.069   0.0% |
   FFT 1D:                                    0.054     0.054   0.0% |
   FFT 2D:                                    0.207     0.207   0.0% |
  XC 3D grid:                                 0.946     0.946   0.0% |
  vbar:                                       0.018     0.018   0.0% |
P tci:                                       38.917    38.917   1.0% |
Redistribute:                                 0.001     0.001   0.0% |
SCF-cycle:                                 1688.115     0.318   0.0% |
 Density:                                  1252.403     0.000   0.0% |
  Atomic density matrices:                    0.484     0.484   0.0% |
  Mix:                                        0.965     0.965   0.0% |
  Multipole moments:                          0.012     0.012   0.0% |
  Normalize:                                  0.002     0.002   0.0% |
  Pseudo density:                          1250.940     0.033   0.0% |
   Calculate density matrix:                  2.126     2.126   0.1% |
   Construct density:                      1248.780  1248.780  33.3% |------------|
   Symmetrize density:                        0.001     0.001   0.0% |
 Hamiltonian:                                26.666     0.001   0.0% |
  Atomic:                                    19.737     0.057   0.0% |
   XC Correction:                            19.679    19.679   0.5% |
  Calculate atomic Hamiltonians:              0.635     0.635   0.0% |
  Communicate:                                0.000     0.000   0.0% |
  Hartree integrate/restrict:                 0.157     0.157   0.0% |
  Poisson:                                    2.165     0.087   0.0% |
   Communicate from 1D:                       0.257     0.257   0.0% |
   Communicate from 2D:                       0.260     0.260   0.0% |
   Communicate to 1D:                         0.186     0.186   0.0% |
   Communicate to 2D:                         0.275     0.275   0.0% |
   FFT 1D:                                    0.228     0.228   0.0% |
   FFT 2D:                                    0.872     0.872   0.0% |
  XC 3D grid:                                 3.923     3.923   0.1% |
  vbar:                                       0.047     0.047   0.0% |
 LCAO eigensolver:                          408.729     0.374   0.0% |
  Calculate projections:                      9.540     9.540   0.3% |
  DenseAtomicCorrection:                     44.174    44.174   1.2% |
  Distribute overlap matrix:                  0.569     0.569   0.0% |
  Orbital Layouts:                          138.827   138.827   3.7% ||
  Potential matrix:                         159.434   159.434   4.3% |-|
  Sum over cells:                            55.810    55.810   1.5% ||
ST tci:                                       5.232     5.232   0.1% |
Set symmetry:                                 0.001     0.001   0.0% |
TCI: Evaluate splines:                        0.024     0.024   0.0% |
mktci:                                        0.180     0.180   0.0% |
Other:                                       12.322    12.322   0.3% |
--------------------------------------------------------------------
Total:                                               3748.132 100.0%

Memory usage: 3.20 GiB
Date: Wed Nov 19 13:49:07 2025
