
  ___ ___ ___ _ _ _  
 |   |   |_  | | | | 
 | | | | | . | | | | 
 |__ |  _|___|_____|  25.1.0
 |___|_|             

User:   tshepo@Tshepos-MacBook-Pro.local
Date:   Wed Nov 19 08:28:28 2025
Arch:   arm64
Pid:    14911
CWD:    /Users/tshepo/Documents/Workspace/msc/repositories/symmetry/optimized/h-12
Python: 3.13.0
gpaw:   /Users/tshepo/.asdf/installs/python/3.13.0/lib/python3.13/site-packages/gpaw
_gpaw:  /Users/tshepo/.asdf/installs/python/3.13.0/lib/python3.13/site-packages/
        _gpaw.cpython-313-darwin.so
ase:    /Users/tshepo/.asdf/installs/python/3.13.0/lib/python3.13/site-packages/ase (version 3.25.0)
numpy:  /Users/tshepo/.asdf/installs/python/3.13.0/lib/python3.13/site-packages/numpy (version 2.2.3)
scipy:  /Users/tshepo/.asdf/installs/python/3.13.0/lib/python3.13/site-packages/scipy (version 1.15.2)
libxc:  7.0.0
units:  Angstrom and eV
cores: 1
OpenMP: False
OMP_NUM_THREADS: 1

Input parameters:
  basis: dzp
  convergence: {density: 0.0001}
  h: 0.14
  kpts: [3 3 3]
  mode: lcao
  symmetry: {point_group: False}
  xc: PBE

System changes: positions, numbers, cell, pbc, initial_charges, initial_magmoms 

Initialize ...

species:
  Si:
    name: Silicon
    id: ee77bee481871cc2cb65ac61239ccafa
    Z: 14.0
    valence: 4
    core: 10
    charge: 0.0
    file: /Users/tshepo/.gpaw/gpaw-setups-24.11.0/Si.PBE.gz
    compensation charges: {type: gauss,
                           rc: 0.33,
                           lmax: 2}
    cutoffs: {filter: 1.86,
              core: 2.06}
    projectors:
      #              energy  rcut
      - 3s(2.00)   -10.812   1.058
      - 3p(2.00)    -4.081   1.058
      -  s          16.399   1.058
      -  p          23.130   1.058
      -  d           0.000   1.058
  
    # LCAO basis set for Si:
    #   Name: dzp
    #   File: /Users/tshepo/.gpaw/gpaw-setups-24.11.0/Si.dzp.basis.gz
    #   Number of radial functions: 5
    #   Number of spherical harmonics: 13
    #     l=0, rc=6.8594 Bohr: 3s-sz confined orbital
    #     l=1, rc=9.0625 Bohr: 3p-sz confined orbital
    #     l=0, rc=3.8906 Bohr: 3s-dz split-valence wave
    #     l=1, rc=5.2344 Bohr: 3p-dz split-valence wave
    #     l=2, rc=9.0625 Bohr: d-type Gaussian polarization
    #   Number of RI-basis functions 0

Reference energy: -15772.688500  # eV

Spin-paired calculation

Convergence criteria:
 Maximum [total energy] change in last 3 cyles: 0.0005 eV / valence electron
 Maximum integral of absolute [dens]ity change: 0.0001 electrons / valence electron
 Maximum integral of absolute [eigenst]ate change: 4e-08 eV^2 / valence electron
 Maximum number of scf [iter]ations: 333
 (Square brackets indicate name in SCF output, whereas a 'c' in
 the SCF output indicates the quantity has converged.)

Symmetries present (total): 1

  ( 1  0  0)
  ( 0  1  0)
  ( 0  0  1)

27 k-points: 3 x 3 x 3 Monkhorst-Pack grid
14 k-points in the irreducible part of the Brillouin zone
       k-points in crystal coordinates                weights
   0:     0.00000000    0.00000000    0.00000000          1/27
   1:     0.00000000    0.00000000    0.33333333          2/27
   2:     0.00000000    0.33333333   -0.33333333          2/27
   3:     0.00000000    0.33333333    0.00000000          2/27
   4:     0.00000000    0.33333333    0.33333333          2/27
   5:     0.33333333   -0.33333333   -0.33333333          2/27
   6:     0.33333333   -0.33333333    0.00000000          2/27
   7:     0.33333333   -0.33333333    0.33333333          2/27
   8:     0.33333333    0.00000000   -0.33333333          2/27
   9:     0.33333333    0.00000000    0.00000000          2/27
          ...
  13:     0.33333333    0.33333333    0.33333333          2/27

Wave functions: LCAO
  Diagonalizer: Serial LAPACK
  Atomic Correction: dense with blas
  Data-type: complex
 

Occupation numbers: Fermi-Dirac:
  width: 0.1000  # eV
 

Eigensolver
   LCAO using direct dense diagonalizer 

Densities:
  Coarse grid: 24*24*24 grid
  Fine grid: 48*48*48 grid
  Total Charge: 0.000000 

Density mixing:
  Method: separate
  Backend: pulay
  Linear mixing parameter: 0.05
  old densities: 5
  Damping of long wavelength oscillations: 50 

Hamiltonian:
  XC and Coulomb potentials evaluated on a 48*48*48 grid
  Using the PBE Exchange-Correlation functional
  Interpolation: tri-quintic (5. degree polynomial)
  Poisson solver: FastPoissonSolver using
    Stencil: 12*3+1=37 point O(h^6) finite-difference Laplacian
    FFT axes: [np.int64(0), np.int64(1), np.int64(2)]
    FST axes: []
 

XC parameters: PBE with 2 nearest neighbor stencil

Memory estimate:
  Process memory now: 119.08 MiB
  Calculator: 44.47 MiB
    Density: 19.06 MiB
      Arrays: 2.74 MiB
      Localized functions: 15.27 MiB
      Mixer: 1.05 MiB
    Hamiltonian: 2.93 MiB
      Arrays: 1.79 MiB
      XC: 0.00 MiB
      Poisson: 0.00 MiB
      vbar: 1.13 MiB
    Wavefunctions: 22.48 MiB
      C [qnM]: 0.04 MiB
      S, T [2 x qmm]: 0.29 MiB
      P [aqMi]: 0.01 MiB
      BasisFunctions: 22.13 MiB
      Eigensolver: 0.00 MiB

Total number of cores used: 1

Number of atoms: 2
Number of atomic orbitals: 26
Number of bands in calculation: 8
Number of valence electrons: 8
Bands to converge: occupied

... initialized

Initializing position-dependent things.

Density initialized from atomic densities
                    
                    
                    
                    
           Si       
                    
       Si           
                    
                    
                    
                    

Positions:
   0 Si     0.000000    0.000000    0.000000    ( 0.0000,  0.0000,  0.0000)
   1 Si     1.357500    1.357500    1.357500    ( 0.0000,  0.0000,  0.0000)

Unit cell:
           periodic     x           y           z      points  spacing
  1. axis:    yes    0.000000    2.715000    2.715000    24     0.1306
  2. axis:    yes    2.715000    0.000000    2.715000    24     0.1306
  3. axis:    yes    2.715000    2.715000    0.000000    24     0.1306

  Lengths:   3.839590   3.839590   3.839590
  Angles:   60.000000  60.000000  60.000000

Effective grid spacing dv^(1/3) = 0.1425

     iter     time        total  log10-change:
                         energy   eigst   dens
iter:   1 08:28:28   -10.000782        c
iter:   2 08:28:31    -9.997258        c -0.79
iter:   3 08:28:34    -9.982472        c -0.81
iter:   4 08:28:37    -9.980405        c -1.83
iter:   5 08:28:39    -9.980448c       c -2.13
iter:   6 08:28:42    -9.980454c       c -3.56
iter:   7 08:28:45    -9.980447c       c -3.41
iter:   8 08:28:48    -9.980447c       c -4.62c

Converged after 8 iterations.

Dipole moment: (-3.554531, -3.554531, -3.554531) |e|*Ang

Energy contributions relative to reference atoms: (reference = -15772.688500)

Kinetic:        +15.826051
Potential:      -12.957784
External:        +0.000000
XC:             -12.823409
Entropy (-ST):   -0.006856
Local:           -0.021878
SIC:             +0.000000
--------------------------
Free energy:     -9.983875
Extrapolated:    -9.980447

Showing only first 2 kpts
 Kpt  Band  Eigenvalues  Occupancy
  0     2      5.40613    1.93531
  0     3      5.40613    1.93531
  0     4      8.01466    0.00000
  0     5      8.01466    0.00000

  1     2      4.38981    2.00000
  1     3      4.38985    2.00000
  1     4      7.21737    0.00000
  1     5      9.03752    0.00000


Fermi level: 5.74597

Gap: 0.751 eV
Transition (v -> c):
  (s=0, k=0, n=3, [0.00, 0.00, 0.00]) -> (s=0, k=10, n=4, [0.33, 0.00, 0.33])
Direct/indirect transitions are different
Direct gap: 2.609 eV
Transition at: (s=0, k=0, n=3, [0.00, 0.00, 0.00])
System changes: cell, numbers, positions 

Initialize ...

species:
  Si:
    name: Silicon
    id: ee77bee481871cc2cb65ac61239ccafa
    Z: 14.0
    valence: 4
    core: 10
    charge: 0.0
    file: /Users/tshepo/.gpaw/gpaw-setups-24.11.0/Si.PBE.gz
    compensation charges: {type: gauss,
                           rc: 0.33,
                           lmax: 2}
    cutoffs: {filter: 1.86,
              core: 2.06}
    projectors:
      #              energy  rcut
      - 3s(2.00)   -10.812   1.058
      - 3p(2.00)    -4.081   1.058
      -  s          16.399   1.058
      -  p          23.130   1.058
      -  d           0.000   1.058
  
    # LCAO basis set for Si:
    #   Name: dzp
    #   File: /Users/tshepo/.gpaw/gpaw-setups-24.11.0/Si.dzp.basis.gz
    #   Number of radial functions: 5
    #   Number of spherical harmonics: 13
    #     l=0, rc=6.8594 Bohr: 3s-sz confined orbital
    #     l=1, rc=9.0625 Bohr: 3p-sz confined orbital
    #     l=0, rc=3.8906 Bohr: 3s-dz split-valence wave
    #     l=1, rc=5.2344 Bohr: 3p-dz split-valence wave
    #     l=2, rc=9.0625 Bohr: d-type Gaussian polarization
    #   Number of RI-basis functions 0

Reference energy: -425862.589512  # eV

Spin-paired calculation

Convergence criteria:
 Maximum [total energy] change in last 3 cyles: 0.0005 eV / valence electron
 Maximum integral of absolute [dens]ity change: 0.0001 electrons / valence electron
 Maximum integral of absolute [eigenst]ate change: 4e-08 eV^2 / valence electron
 Maximum number of scf [iter]ations: 333
 (Square brackets indicate name in SCF output, whereas a 'c' in
 the SCF output indicates the quantity has converged.)

Symmetries present (total): 1

  ( 1  0  0)
  ( 0  1  0)
  ( 0  0  1)

27 k-points: 3 x 3 x 3 Monkhorst-Pack grid
14 k-points in the irreducible part of the Brillouin zone
       k-points in crystal coordinates                weights
   0:     0.00000000    0.00000000    0.00000000          1/27
   1:     0.00000000    0.00000000    0.33333333          2/27
   2:     0.00000000    0.33333333   -0.33333333          2/27
   3:     0.00000000    0.33333333    0.00000000          2/27
   4:     0.00000000    0.33333333    0.33333333          2/27
   5:     0.33333333   -0.33333333   -0.33333333          2/27
   6:     0.33333333   -0.33333333    0.00000000          2/27
   7:     0.33333333   -0.33333333    0.33333333          2/27
   8:     0.33333333    0.00000000   -0.33333333          2/27
   9:     0.33333333    0.00000000    0.00000000          2/27
          ...
  13:     0.33333333    0.33333333    0.33333333          2/27

Wave functions: LCAO
  Diagonalizer: Serial LAPACK
  Atomic Correction: dense with blas
  Data-type: complex
 

Occupation numbers: Fermi-Dirac:
  width: 0.1000  # eV
 

Eigensolver
   LCAO using direct dense diagonalizer 

Densities:
  Coarse grid: 68*68*68 grid
  Fine grid: 136*136*136 grid
  Total Charge: 0.000000 

Density mixing:
  Method: separate
  Backend: pulay
  Linear mixing parameter: 0.05
  old densities: 5
  Damping of long wavelength oscillations: 50 

Hamiltonian:
  XC and Coulomb potentials evaluated on a 136*136*136 grid
  Using the PBE Exchange-Correlation functional
  Interpolation: tri-quintic (5. degree polynomial)
  Poisson solver: FastPoissonSolver using
    Stencil: 12*3+1=37 point O(h^6) finite-difference Laplacian
    FFT axes: [np.int64(0), np.int64(1), np.int64(2)]
    FST axes: []
 

XC parameters: PBE with 2 nearest neighbor stencil

Memory estimate:
  Process memory now: 524.22 MiB
  Calculator: 1240.83 MiB
    Density: 433.58 MiB
      Arrays: 62.37 MiB
      Localized functions: 347.22 MiB
      Mixer: 23.99 MiB
    Hamiltonian: 66.59 MiB
      Arrays: 40.78 MiB
      XC: 0.00 MiB
      Poisson: 0.00 MiB
      vbar: 25.81 MiB
    Wavefunctions: 740.66 MiB
      C [qnM]: 20.10 MiB
      S, T [2 x qmm]: 210.55 MiB
      P [aqMi]: 6.58 MiB
      BasisFunctions: 503.44 MiB
      Eigensolver: 0.00 MiB

Total number of cores used: 1

Number of atoms: 54
Number of atomic orbitals: 702
Number of bands in calculation: 134
Number of valence electrons: 216
Bands to converge: occupied

... initialized

Initializing position-dependent things.

Density initialized from atomic densities
                                                      
                                                      
                                                      
                                                      
                                             Si       
                                    Si                
                                         Si           
                            Si        Si              
                                Si                    
                              Si           Si         
                     Si Si     Si SSi                 
                          Si           Si             
                       Si Si        Si                
                 Si        Si  Si                     
               Si           Si           Si           
                   SSiSi      SiSSi                   
           Si           Si           Si               
                     Si  Si        Si                 
                Si        Si Si                       
             Si           Si                          
                 SSi Si     Si Si                     
         Si           Si                              
                    Si                                
              Si        Si                            
           Si                                         
                Si                                    
       Si                                             
                                                      
                                                      
                                                      
                                                      

Positions:
   0 Si     0.000000    0.000000    0.000000    ( 0.0000,  0.0000,  0.0000)
   1 Si     1.357500    1.357500    1.357500    ( 0.0000,  0.0000,  0.0000)
   2 Si     2.715000    2.715000    0.000000    ( 0.0000,  0.0000,  0.0000)
   3 Si     4.072500    4.072500    1.357500    ( 0.0000,  0.0000,  0.0000)
   4 Si     5.430000    5.430000    0.000000    ( 0.0000,  0.0000,  0.0000)
   5 Si     6.787500    6.787500    1.357500    ( 0.0000,  0.0000,  0.0000)
   6 Si     2.715000    0.000000    2.715000    ( 0.0000,  0.0000,  0.0000)
   7 Si     4.072500    1.357500    4.072500    ( 0.0000,  0.0000,  0.0000)
   8 Si     5.430000    2.715000    2.715000    ( 0.0000,  0.0000,  0.0000)
   9 Si     6.787500    4.072500    4.072500    ( 0.0000,  0.0000,  0.0000)
  10 Si     8.145000    5.430000    2.715000    ( 0.0000,  0.0000,  0.0000)
  11 Si     9.502500    6.787500    4.072500    ( 0.0000,  0.0000,  0.0000)
  12 Si     5.430000    0.000000    5.430000    ( 0.0000,  0.0000,  0.0000)
  13 Si     6.787500    1.357500    6.787500    ( 0.0000,  0.0000,  0.0000)
  14 Si     8.145000    2.715000    5.430000    ( 0.0000,  0.0000,  0.0000)
  15 Si     9.502500    4.072500    6.787500    ( 0.0000,  0.0000,  0.0000)
  16 Si    10.860000    5.430000    5.430000    ( 0.0000,  0.0000,  0.0000)
  17 Si    12.217500    6.787500    6.787500    ( 0.0000,  0.0000,  0.0000)
  18 Si     0.000000    2.715000    2.715000    ( 0.0000,  0.0000,  0.0000)
  19 Si     1.357500    4.072500    4.072500    ( 0.0000,  0.0000,  0.0000)
  20 Si     2.715000    5.430000    2.715000    ( 0.0000,  0.0000,  0.0000)
  21 Si     4.072500    6.787500    4.072500    ( 0.0000,  0.0000,  0.0000)
  22 Si     5.430000    8.145000    2.715000    ( 0.0000,  0.0000,  0.0000)
  23 Si     6.787500    9.502500    4.072500    ( 0.0000,  0.0000,  0.0000)
  24 Si     2.715000    2.715000    5.430000    ( 0.0000,  0.0000,  0.0000)
  25 Si     4.072500    4.072500    6.787500    ( 0.0000,  0.0000,  0.0000)
  26 Si     5.430000    5.430000    5.430000    ( 0.0000,  0.0000,  0.0000)
  27 Si     6.787500    6.787500    6.787500    ( 0.0000,  0.0000,  0.0000)
  28 Si     8.145000    8.145000    5.430000    ( 0.0000,  0.0000,  0.0000)
  29 Si     9.502500    9.502500    6.787500    ( 0.0000,  0.0000,  0.0000)
  30 Si     5.430000    2.715000    8.145000    ( 0.0000,  0.0000,  0.0000)
  31 Si     6.787500    4.072500    9.502500    ( 0.0000,  0.0000,  0.0000)
  32 Si     8.145000    5.430000    8.145000    ( 0.0000,  0.0000,  0.0000)
  33 Si     9.502500    6.787500    9.502500    ( 0.0000,  0.0000,  0.0000)
  34 Si    10.860000    8.145000    8.145000    ( 0.0000,  0.0000,  0.0000)
  35 Si    12.217500    9.502500    9.502500    ( 0.0000,  0.0000,  0.0000)
  36 Si     0.000000    5.430000    5.430000    ( 0.0000,  0.0000,  0.0000)
  37 Si     1.357500    6.787500    6.787500    ( 0.0000,  0.0000,  0.0000)
  38 Si     2.715000    8.145000    5.430000    ( 0.0000,  0.0000,  0.0000)
  39 Si     4.072500    9.502500    6.787500    ( 0.0000,  0.0000,  0.0000)
  40 Si     5.430000   10.860000    5.430000    ( 0.0000,  0.0000,  0.0000)
  41 Si     6.787500   12.217500    6.787500    ( 0.0000,  0.0000,  0.0000)
  42 Si     2.715000    5.430000    8.145000    ( 0.0000,  0.0000,  0.0000)
  43 Si     4.072500    6.787500    9.502500    ( 0.0000,  0.0000,  0.0000)
  44 Si     5.430000    8.145000    8.145000    ( 0.0000,  0.0000,  0.0000)
  45 Si     6.787500    9.502500    9.502500    ( 0.0000,  0.0000,  0.0000)
  46 Si     8.145000   10.860000    8.145000    ( 0.0000,  0.0000,  0.0000)
  47 Si     9.502500   12.217500    9.502500    ( 0.0000,  0.0000,  0.0000)
  48 Si     5.430000    5.430000   10.860000    ( 0.0000,  0.0000,  0.0000)
  49 Si     6.787500    6.787500   12.217500    ( 0.0000,  0.0000,  0.0000)
  50 Si     8.145000    8.145000   10.860000    ( 0.0000,  0.0000,  0.0000)
  51 Si     9.502500    9.502500   12.217500    ( 0.0000,  0.0000,  0.0000)
  52 Si    10.860000   10.860000   10.860000    ( 0.0000,  0.0000,  0.0000)
  53 Si    12.217500   12.217500   12.217500    ( 0.0000,  0.0000,  0.0000)

Unit cell:
           periodic     x           y           z      points  spacing
  1. axis:    yes    0.000000    8.145000    8.145000    68     0.1383
  2. axis:    yes    8.145000    0.000000    8.145000    68     0.1383
  3. axis:    yes    8.145000    8.145000    0.000000    68     0.1383

  Lengths:  11.518769  11.518769  11.518769
  Angles:   60.000000  60.000000  60.000000

Effective grid spacing dv^(1/3) = 0.1509

     iter     time        total  log10-change:
                         energy   eigst   dens
iter:   1 08:29:05  -286.060191        c
iter:   2 08:30:17  -286.049512        c -0.84
iter:   3 08:31:29  -286.182998        c -0.86
iter:   4 08:32:41  -286.133928        c -1.90
iter:   5 08:33:53  -286.131530c       c -2.25
iter:   6 08:35:05  -286.131524c       c -3.65
iter:   7 08:36:17  -286.131551c       c -3.68
iter:   8 08:37:29  -286.131540c       c -3.77
iter:   9 08:38:42  -286.131541c       c -5.51c

Converged after 9 iterations.

Dipole moment: (-99.310824, -99.310824, -99.310824) |e|*Ang

Energy contributions relative to reference atoms: (reference = -425862.589512)

Kinetic:       +383.236247
Potential:     -333.495803
External:        +0.000000
XC:            -335.171536
Entropy (-ST):   -0.021614
Local:           -0.689641
SIC:             +0.000000
--------------------------
Free energy:   -286.142348
Extrapolated:  -286.131541

Showing only first 2 kpts
 Kpt  Band  Eigenvalues  Occupancy
  0   106      5.30736    1.90659
  0   107      5.30736    1.90659
  0   108      6.09474    0.01542
  0   109      6.09474    0.01542

  1   106      5.06774    1.99112
  1   107      5.06781    1.99111
  1   108      6.34935    0.00122
  1   109      6.34938    0.00122


Fermi level: 5.60896

Gap: 0.651 eV
Transition (v -> c):
  (s=0, k=0, n=107, [0.00, 0.00, 0.00]) -> (s=0, k=10, n=108, [0.33, 0.00, 0.33])
Direct/indirect transitions are different
Direct gap: 0.787 eV
Transition at: (s=0, k=0, n=107, [0.00, 0.00, 0.00])

Forces in eV/Ang:
  0 Si    0.00015    0.00015    0.00015
  1 Si    0.00121    0.00121    0.00121
  2 Si    0.00189    0.00189    0.00046
  3 Si   -0.00015   -0.00015    0.00024
  4 Si   -0.00160   -0.00160    0.00046
  5 Si   -0.00150   -0.00150    0.00121
  6 Si    0.00189    0.00046    0.00189
  7 Si   -0.00015    0.00024   -0.00015
  8 Si    0.00161   -0.00132   -0.00132
  9 Si   -0.00053   -0.00014   -0.00014
 10 Si   -0.00017   -0.00160    0.00189
 11 Si   -0.00189    0.00160    0.00017
 12 Si   -0.00160    0.00046   -0.00160
 13 Si   -0.00150    0.00121   -0.00150
 14 Si   -0.00017    0.00189   -0.00160
 15 Si   -0.00189    0.00017    0.00160
 16 Si   -0.00121    0.00150    0.00150
 17 Si   -0.00046    0.00160    0.00160
 18 Si    0.00046    0.00189    0.00189
 19 Si    0.00024   -0.00015   -0.00015
 20 Si   -0.00132    0.00161   -0.00132
 21 Si   -0.00014   -0.00053   -0.00014
 22 Si   -0.00160   -0.00017    0.00189
 23 Si    0.00160   -0.00189    0.00017
 24 Si   -0.00132   -0.00132    0.00161
 25 Si   -0.00014   -0.00014   -0.00053
 26 Si    0.00161    0.00161    0.00161
 27 Si   -0.00161   -0.00161   -0.00161
 28 Si    0.00014    0.00014    0.00053
 29 Si    0.00132    0.00132   -0.00161
 30 Si   -0.00160    0.00189   -0.00017
 31 Si    0.00160    0.00017   -0.00189
 32 Si    0.00014    0.00053    0.00014
 33 Si    0.00132   -0.00161    0.00132
 34 Si   -0.00024    0.00015    0.00015
 35 Si   -0.00046   -0.00189   -0.00189
 36 Si    0.00046   -0.00160   -0.00160
 37 Si    0.00121   -0.00150   -0.00150
 38 Si    0.00189   -0.00017   -0.00160
 39 Si    0.00017   -0.00189    0.00160
 40 Si    0.00150   -0.00121    0.00150
 41 Si    0.00160   -0.00046    0.00160
 42 Si    0.00189   -0.00160   -0.00017
 43 Si    0.00017    0.00160   -0.00189
 44 Si    0.00053    0.00014    0.00014
 45 Si   -0.00161    0.00132    0.00132
 46 Si    0.00015   -0.00024    0.00015
 47 Si   -0.00189   -0.00046   -0.00189
 48 Si    0.00150    0.00150   -0.00121
 49 Si    0.00160    0.00160   -0.00046
 50 Si    0.00015    0.00015   -0.00024
 51 Si   -0.00189   -0.00189   -0.00046
 52 Si   -0.00121   -0.00121   -0.00121
 53 Si   -0.00015   -0.00015   -0.00015

System changes: positions 

Initializing position-dependent things.

Density initialized from wave functions
                                                      
                                                      
                                                      
                                                      
                                             Si       
                                    Si                
                                         Si           
                            Si        Si              
                                Si                    
                              Si           Si         
                     Si Si     Si SSi                 
                          Si           Si             
                       Si Si        Si                
                 Si        Si  Si                     
               Si           Si           Si           
                   SSiSi      SiSSi                   
           Si           Si           Si               
                     Si  Si        Si                 
                Si        Si Si                       
             Si           Si                          
                 SSi Si     Si Si                     
         Si           Si                              
                    Si                                
              Si        Si                            
           Si                                         
                Si                                    
       Si                                             
                                                      
                                                      
                                                      
                                                      

Positions:
   0 Si     0.000000    0.000000    0.000000    ( 0.0000,  0.0000,  0.0000)
   1 Si     1.357500    1.357500    1.357500    ( 0.0000,  0.0000,  0.0000)
   2 Si     2.715000    2.715000    0.000000    ( 0.0000,  0.0000,  0.0000)
   3 Si     4.072500    4.072500    1.357500    ( 0.0000,  0.0000,  0.0000)
   4 Si     5.430000    5.430000    0.000000    ( 0.0000,  0.0000,  0.0000)
   5 Si     6.787500    6.787500    1.357500    ( 0.0000,  0.0000,  0.0000)
   6 Si     2.715000    0.000000    2.715000    ( 0.0000,  0.0000,  0.0000)
   7 Si     4.072500    1.357500    4.072500    ( 0.0000,  0.0000,  0.0000)
   8 Si     5.430000    2.715000    2.715000    ( 0.0000,  0.0000,  0.0000)
   9 Si     6.787500    4.072500    4.072500    ( 0.0000,  0.0000,  0.0000)
  10 Si     8.145000    5.430000    2.715000    ( 0.0000,  0.0000,  0.0000)
  11 Si     9.502500    6.787500    4.072500    ( 0.0000,  0.0000,  0.0000)
  12 Si     5.430000    0.000000    5.430000    ( 0.0000,  0.0000,  0.0000)
  13 Si     6.787500    1.357500    6.787500    ( 0.0000,  0.0000,  0.0000)
  14 Si     8.145000    2.715000    5.430000    ( 0.0000,  0.0000,  0.0000)
  15 Si     9.502500    4.072500    6.787500    ( 0.0000,  0.0000,  0.0000)
  16 Si    10.860000    5.430000    5.430000    ( 0.0000,  0.0000,  0.0000)
  17 Si    12.217500    6.787500    6.787500    ( 0.0000,  0.0000,  0.0000)
  18 Si     0.000000    2.715000    2.715000    ( 0.0000,  0.0000,  0.0000)
  19 Si     1.357500    4.072500    4.072500    ( 0.0000,  0.0000,  0.0000)
  20 Si     2.715000    5.430000    2.715000    ( 0.0000,  0.0000,  0.0000)
  21 Si     4.072500    6.787500    4.072500    ( 0.0000,  0.0000,  0.0000)
  22 Si     5.430000    8.145000    2.715000    ( 0.0000,  0.0000,  0.0000)
  23 Si     6.787500    9.502500    4.072500    ( 0.0000,  0.0000,  0.0000)
  24 Si     2.715000    2.715000    5.430000    ( 0.0000,  0.0000,  0.0000)
  25 Si     4.072500    4.072500    6.787500    ( 0.0000,  0.0000,  0.0000)
  26 Si     5.420000    5.430000    5.430000    ( 0.0000,  0.0000,  0.0000)
  27 Si     6.787500    6.787500    6.787500    ( 0.0000,  0.0000,  0.0000)
  28 Si     8.145000    8.145000    5.430000    ( 0.0000,  0.0000,  0.0000)
  29 Si     9.502500    9.502500    6.787500    ( 0.0000,  0.0000,  0.0000)
  30 Si     5.430000    2.715000    8.145000    ( 0.0000,  0.0000,  0.0000)
  31 Si     6.787500    4.072500    9.502500    ( 0.0000,  0.0000,  0.0000)
  32 Si     8.145000    5.430000    8.145000    ( 0.0000,  0.0000,  0.0000)
  33 Si     9.502500    6.787500    9.502500    ( 0.0000,  0.0000,  0.0000)
  34 Si    10.860000    8.145000    8.145000    ( 0.0000,  0.0000,  0.0000)
  35 Si    12.217500    9.502500    9.502500    ( 0.0000,  0.0000,  0.0000)
  36 Si     0.000000    5.430000    5.430000    ( 0.0000,  0.0000,  0.0000)
  37 Si     1.357500    6.787500    6.787500    ( 0.0000,  0.0000,  0.0000)
  38 Si     2.715000    8.145000    5.430000    ( 0.0000,  0.0000,  0.0000)
  39 Si     4.072500    9.502500    6.787500    ( 0.0000,  0.0000,  0.0000)
  40 Si     5.430000   10.860000    5.430000    ( 0.0000,  0.0000,  0.0000)
  41 Si     6.787500   12.217500    6.787500    ( 0.0000,  0.0000,  0.0000)
  42 Si     2.715000    5.430000    8.145000    ( 0.0000,  0.0000,  0.0000)
  43 Si     4.072500    6.787500    9.502500    ( 0.0000,  0.0000,  0.0000)
  44 Si     5.430000    8.145000    8.145000    ( 0.0000,  0.0000,  0.0000)
  45 Si     6.787500    9.502500    9.502500    ( 0.0000,  0.0000,  0.0000)
  46 Si     8.145000   10.860000    8.145000    ( 0.0000,  0.0000,  0.0000)
  47 Si     9.502500   12.217500    9.502500    ( 0.0000,  0.0000,  0.0000)
  48 Si     5.430000    5.430000   10.860000    ( 0.0000,  0.0000,  0.0000)
  49 Si     6.787500    6.787500   12.217500    ( 0.0000,  0.0000,  0.0000)
  50 Si     8.145000    8.145000   10.860000    ( 0.0000,  0.0000,  0.0000)
  51 Si     9.502500    9.502500   12.217500    ( 0.0000,  0.0000,  0.0000)
  52 Si    10.860000   10.860000   10.860000    ( 0.0000,  0.0000,  0.0000)
  53 Si    12.217500   12.217500   12.217500    ( 0.0000,  0.0000,  0.0000)

Unit cell:
           periodic     x           y           z      points  spacing
  1. axis:    yes    0.000000    8.145000    8.145000    68     0.1383
  2. axis:    yes    8.145000    0.000000    8.145000    68     0.1383
  3. axis:    yes    8.145000    8.145000    0.000000    68     0.1383

  Lengths:  11.518769  11.518769  11.518769
  Angles:   60.000000  60.000000  60.000000

Effective grid spacing dv^(1/3) = 0.1509

     iter     time        total  log10-change:
                         energy   eigst   dens
iter:   1 08:45:31  -286.130981        c
iter:   2 08:46:44  -286.130933        c -3.77
iter:   3 08:47:56  -286.130838c       c -3.87
iter:   4 08:49:08  -286.130825c       c -4.00
iter:   5 08:50:21  -286.130824c       c -4.36c

Converged after 5 iterations.

Dipole moment: (-99.312142, -99.310934, -99.310934) |e|*Ang

Energy contributions relative to reference atoms: (reference = -425862.589512)

Kinetic:       +383.283012
Potential:     -333.530068
External:        +0.000000
XC:            -335.174400
Entropy (-ST):   -0.021617
Local:           -0.698560
SIC:             +0.000000
--------------------------
Free energy:   -286.141632
Extrapolated:  -286.130824

Showing only first 2 kpts
 Kpt  Band  Eigenvalues  Occupancy
  0   106      5.30733    1.90661
  0   107      5.30916    1.90498
  0   108      6.09299    0.01569
  0   109      6.09330    0.01564

  1   106      5.06717    1.99117
  1   107      5.06938    1.99097
  1   108      6.34830    0.00123
  1   109      6.34948    0.00122


Fermi level: 5.60897

Gap: 0.649 eV
Transition (v -> c):
  (s=0, k=0, n=107, [0.00, 0.00, 0.00]) -> (s=0, k=4, n=108, [0.00, 0.33, 0.33])
Direct/indirect transitions are different
Direct gap: 0.784 eV
Transition at: (s=0, k=0, n=107, [0.00, 0.00, 0.00])

Forces in eV/Ang:
  0 Si   -0.00044    0.00117    0.00117
  1 Si    0.00067    0.00120    0.00120
  2 Si    0.00127    0.00288   -0.00059
  3 Si    0.00034   -0.00027    0.00043
  4 Si   -0.00252   -0.00177    0.00045
  5 Si   -0.00100   -0.00161    0.00113
  6 Si    0.00127   -0.00059    0.00288
  7 Si    0.00034    0.00043   -0.00027
  8 Si    0.00622   -0.00240   -0.00240
  9 Si   -0.03595    0.02455    0.02455
 10 Si   -0.00188    0.00007    0.00364
 11 Si   -0.00097    0.00233   -0.00061
 12 Si   -0.00252    0.00045   -0.00177
 13 Si   -0.00100    0.00113   -0.00161
 14 Si   -0.00188    0.00364    0.00007
 15 Si   -0.00097   -0.00061    0.00233
 16 Si   -0.00083    0.00148    0.00148
 17 Si   -0.00076    0.00140    0.00140
 18 Si   -0.00016    0.00083    0.00083
 19 Si    0.00125    0.00061    0.00061
 20 Si   -0.00302    0.00318   -0.00306
 21 Si   -0.03578    0.02469   -0.02549
 22 Si    0.00313   -0.00130    0.00302
 23 Si    0.00206   -0.00179    0.00027
 24 Si   -0.00302   -0.00306    0.00318
 25 Si   -0.03578   -0.02549    0.02469
 26 Si    0.14509    0.00175    0.00175
 27 Si   -0.03679   -0.02618   -0.02618
 28 Si   -0.00160   -0.00164   -0.00100
 29 Si    0.00146    0.00076   -0.00152
 30 Si    0.00313    0.00302   -0.00130
 31 Si    0.00206    0.00027   -0.00179
 32 Si   -0.00160   -0.00100   -0.00164
 33 Si    0.00146   -0.00152    0.00076
 34 Si   -0.00089   -0.00055   -0.00055
 35 Si   -0.00356   -0.00186   -0.00186
 36 Si    0.00085   -0.00158   -0.00158
 37 Si    0.00208   -0.00224   -0.00224
 38 Si    0.00008    0.00167   -0.00324
 39 Si    0.00063   -0.00192    0.00170
 40 Si    0.00054   -0.00122    0.00168
 41 Si    0.00128   -0.00064    0.00179
 42 Si    0.00008   -0.00324    0.00167
 43 Si    0.00063    0.00170   -0.00192
 44 Si    0.00535    0.00131    0.00131
 45 Si   -0.00464    0.00124    0.00124
 46 Si   -0.00038   -0.00106    0.00083
 47 Si   -0.00164   -0.00043   -0.00138
 48 Si    0.00054    0.00168   -0.00122
 49 Si    0.00128    0.00179   -0.00064
 50 Si   -0.00038    0.00083   -0.00106
 51 Si   -0.00164   -0.00138   -0.00043
 52 Si   -0.00172   -0.00051   -0.00051
 53 Si   -0.00047    0.00004    0.00004

System changes: positions 

Initializing position-dependent things.

Density initialized from wave functions
                                                      
                                                      
                                                      
                                                      
                                             Si       
                                    Si                
                                         Si           
                            Si        Si              
                                Si                    
                              Si           Si         
                     Si Si     Si SSi                 
                          Si           Si             
                       Si Si        Si                
                 Si        Si  Si                     
               Si           Si           Si           
                   SSiSi      SiSSi                   
           Si           Si           Si               
                     Si  Si        Si                 
                Si        Si Si                       
             Si           Si                          
                 SSi Si     Si Si                     
         Si           Si                              
                    Si                                
              Si        Si                            
           Si                                         
                Si                                    
       Si                                             
                                                      
                                                      
                                                      
                                                      

Positions:
   0 Si     0.000000    0.000000    0.000000    ( 0.0000,  0.0000,  0.0000)
   1 Si     1.357500    1.357500    1.357500    ( 0.0000,  0.0000,  0.0000)
   2 Si     2.715000    2.715000    0.000000    ( 0.0000,  0.0000,  0.0000)
   3 Si     4.072500    4.072500    1.357500    ( 0.0000,  0.0000,  0.0000)
   4 Si     5.430000    5.430000    0.000000    ( 0.0000,  0.0000,  0.0000)
   5 Si     6.787500    6.787500    1.357500    ( 0.0000,  0.0000,  0.0000)
   6 Si     2.715000    0.000000    2.715000    ( 0.0000,  0.0000,  0.0000)
   7 Si     4.072500    1.357500    4.072500    ( 0.0000,  0.0000,  0.0000)
   8 Si     5.430000    2.715000    2.715000    ( 0.0000,  0.0000,  0.0000)
   9 Si     6.787500    4.072500    4.072500    ( 0.0000,  0.0000,  0.0000)
  10 Si     8.145000    5.430000    2.715000    ( 0.0000,  0.0000,  0.0000)
  11 Si     9.502500    6.787500    4.072500    ( 0.0000,  0.0000,  0.0000)
  12 Si     5.430000    0.000000    5.430000    ( 0.0000,  0.0000,  0.0000)
  13 Si     6.787500    1.357500    6.787500    ( 0.0000,  0.0000,  0.0000)
  14 Si     8.145000    2.715000    5.430000    ( 0.0000,  0.0000,  0.0000)
  15 Si     9.502500    4.072500    6.787500    ( 0.0000,  0.0000,  0.0000)
  16 Si    10.860000    5.430000    5.430000    ( 0.0000,  0.0000,  0.0000)
  17 Si    12.217500    6.787500    6.787500    ( 0.0000,  0.0000,  0.0000)
  18 Si     0.000000    2.715000    2.715000    ( 0.0000,  0.0000,  0.0000)
  19 Si     1.357500    4.072500    4.072500    ( 0.0000,  0.0000,  0.0000)
  20 Si     2.715000    5.430000    2.715000    ( 0.0000,  0.0000,  0.0000)
  21 Si     4.072500    6.787500    4.072500    ( 0.0000,  0.0000,  0.0000)
  22 Si     5.430000    8.145000    2.715000    ( 0.0000,  0.0000,  0.0000)
  23 Si     6.787500    9.502500    4.072500    ( 0.0000,  0.0000,  0.0000)
  24 Si     2.715000    2.715000    5.430000    ( 0.0000,  0.0000,  0.0000)
  25 Si     4.072500    4.072500    6.787500    ( 0.0000,  0.0000,  0.0000)
  26 Si     5.440000    5.430000    5.430000    ( 0.0000,  0.0000,  0.0000)
  27 Si     6.787500    6.787500    6.787500    ( 0.0000,  0.0000,  0.0000)
  28 Si     8.145000    8.145000    5.430000    ( 0.0000,  0.0000,  0.0000)
  29 Si     9.502500    9.502500    6.787500    ( 0.0000,  0.0000,  0.0000)
  30 Si     5.430000    2.715000    8.145000    ( 0.0000,  0.0000,  0.0000)
  31 Si     6.787500    4.072500    9.502500    ( 0.0000,  0.0000,  0.0000)
  32 Si     8.145000    5.430000    8.145000    ( 0.0000,  0.0000,  0.0000)
  33 Si     9.502500    6.787500    9.502500    ( 0.0000,  0.0000,  0.0000)
  34 Si    10.860000    8.145000    8.145000    ( 0.0000,  0.0000,  0.0000)
  35 Si    12.217500    9.502500    9.502500    ( 0.0000,  0.0000,  0.0000)
  36 Si     0.000000    5.430000    5.430000    ( 0.0000,  0.0000,  0.0000)
  37 Si     1.357500    6.787500    6.787500    ( 0.0000,  0.0000,  0.0000)
  38 Si     2.715000    8.145000    5.430000    ( 0.0000,  0.0000,  0.0000)
  39 Si     4.072500    9.502500    6.787500    ( 0.0000,  0.0000,  0.0000)
  40 Si     5.430000   10.860000    5.430000    ( 0.0000,  0.0000,  0.0000)
  41 Si     6.787500   12.217500    6.787500    ( 0.0000,  0.0000,  0.0000)
  42 Si     2.715000    5.430000    8.145000    ( 0.0000,  0.0000,  0.0000)
  43 Si     4.072500    6.787500    9.502500    ( 0.0000,  0.0000,  0.0000)
  44 Si     5.430000    8.145000    8.145000    ( 0.0000,  0.0000,  0.0000)
  45 Si     6.787500    9.502500    9.502500    ( 0.0000,  0.0000,  0.0000)
  46 Si     8.145000   10.860000    8.145000    ( 0.0000,  0.0000,  0.0000)
  47 Si     9.502500   12.217500    9.502500    ( 0.0000,  0.0000,  0.0000)
  48 Si     5.430000    5.430000   10.860000    ( 0.0000,  0.0000,  0.0000)
  49 Si     6.787500    6.787500   12.217500    ( 0.0000,  0.0000,  0.0000)
  50 Si     8.145000    8.145000   10.860000    ( 0.0000,  0.0000,  0.0000)
  51 Si     9.502500    9.502500   12.217500    ( 0.0000,  0.0000,  0.0000)
  52 Si    10.860000   10.860000   10.860000    ( 0.0000,  0.0000,  0.0000)
  53 Si    12.217500   12.217500   12.217500    ( 0.0000,  0.0000,  0.0000)

Unit cell:
           periodic     x           y           z      points  spacing
  1. axis:    yes    0.000000    8.145000    8.145000    68     0.1383
  2. axis:    yes    8.145000    0.000000    8.145000    68     0.1383
  3. axis:    yes    8.145000    8.145000    0.000000    68     0.1383

  Lengths:  11.518769  11.518769  11.518769
  Angles:   60.000000  60.000000  60.000000

Effective grid spacing dv^(1/3) = 0.1509

     iter     time        total  log10-change:
                         energy   eigst   dens
iter:   1 08:57:09  -286.131485        c
iter:   2 08:58:21  -286.131294        c -3.46
iter:   3 09:14:33  -286.130907c       c -3.56
iter:   4 09:30:45  -286.130856c       c -3.70
iter:   5 09:37:40  -286.130851c       c -4.06c

Converged after 5 iterations.

Dipole moment: (-99.308995, -99.310930, -99.310930) |e|*Ang

Energy contributions relative to reference atoms: (reference = -425862.589512)

Kinetic:       +383.283995
Potential:     -333.530955
External:        +0.000000
XC:            -335.174474
Entropy (-ST):   -0.021617
Local:           -0.698608
SIC:             +0.000000
--------------------------
Free energy:   -286.141659
Extrapolated:  -286.130851

Showing only first 2 kpts
 Kpt  Band  Eigenvalues  Occupancy
  0   106      5.30734    1.90661
  0   107      5.30921    1.90493
  0   108      6.09295    0.01569
  0   109      6.09330    0.01564

  1   106      5.06619    1.99125
  1   107      5.06842    1.99106
  1   108      6.34780    0.00124
  1   109      6.34928    0.00122


Fermi level: 5.60897

Gap: 0.649 eV
Transition (v -> c):
  (s=0, k=0, n=107, [0.00, 0.00, 0.00]) -> (s=0, k=4, n=108, [0.00, 0.33, 0.33])
Direct/indirect transitions are different
Direct gap: 0.784 eV
Transition at: (s=0, k=0, n=107, [0.00, 0.00, 0.00])

Forces in eV/Ang:
  0 Si    0.00086   -0.00134   -0.00134
  1 Si    0.00250    0.00121    0.00121
  2 Si    0.00256    0.00036    0.00193
  3 Si   -0.00054   -0.00053    0.00066
  4 Si   -0.00011   -0.00120    0.00047
  5 Si   -0.00188   -0.00188    0.00090
  6 Si    0.00256    0.00193    0.00036
  7 Si   -0.00054    0.00066   -0.00053
  8 Si   -0.00241    0.00024    0.00024
  9 Si    0.03513   -0.02569   -0.02569
 10 Si    0.00174   -0.00402    0.00018
 11 Si   -0.00351    0.00058    0.00114
 12 Si   -0.00011    0.00047   -0.00120
 13 Si   -0.00188    0.00090   -0.00188
 14 Si    0.00174    0.00018   -0.00402
 15 Si   -0.00351    0.00114    0.00058
 16 Si   -0.00236    0.00149    0.00149
 17 Si    0.00048    0.00196    0.00196
 18 Si    0.00115    0.00334    0.00334
 19 Si   -0.00129   -0.00114   -0.00114
 20 Si    0.00058   -0.00090    0.00038
 21 Si    0.03530   -0.02553    0.02475
 22 Si   -0.00550    0.00137    0.00034
 23 Si    0.00118   -0.00156    0.00053
 24 Si    0.00058    0.00038   -0.00090
 25 Si    0.03530    0.02475   -0.02553
 26 Si   -0.14673    0.00092    0.00092
 27 Si    0.03420    0.02396    0.02396
 28 Si    0.00203    0.00183    0.00309
 29 Si    0.00048    0.00209   -0.00153
 30 Si   -0.00550    0.00034    0.00137
 31 Si    0.00118    0.00053   -0.00156
 32 Si    0.00203    0.00309    0.00183
 33 Si    0.00048   -0.00153    0.00209
 34 Si    0.00023    0.00099    0.00099
 35 Si    0.00218   -0.00186   -0.00186
 36 Si   -0.00063   -0.00158   -0.00158
 37 Si   -0.00045   -0.00049   -0.00049
 38 Si    0.00368   -0.00178    0.00085
 39 Si   -0.00025   -0.00216    0.00197
 40 Si    0.00296   -0.00124    0.00110
 41 Si    0.00254   -0.00011    0.00126
 42 Si    0.00368    0.00085   -0.00178
 43 Si   -0.00025    0.00197   -0.00216
 44 Si   -0.00329   -0.00134   -0.00134
 45 Si    0.00111    0.00124    0.00124
 46 Si    0.00073    0.00048   -0.00071
 47 Si   -0.00262   -0.00043   -0.00271
 48 Si    0.00296    0.00110   -0.00124
 49 Si    0.00254    0.00126   -0.00011
 50 Si    0.00073   -0.00071    0.00048
 51 Si   -0.00262   -0.00271   -0.00043
 52 Si   -0.00061   -0.00205   -0.00205
 53 Si    0.00076   -0.00052   -0.00052

System changes: positions 

Initializing position-dependent things.

Density initialized from wave functions
                                                      
                                                      
                                                      
                                                      
                                             Si       
                                    Si                
                                         Si           
                            Si        Si              
                                Si                    
                              Si           Si         
                     Si Si     Si SSi                 
                          Si           Si             
                       Si Si        Si                
                 Si        Si  Si                     
               Si           Si           Si           
                   SSiSi      SiSSi                   
           Si           Si           Si               
                     Si  Si        Si                 
                Si        Si Si                       
             Si           Si                          
                 SSi Si     Si Si                     
         Si           Si                              
                    Si                                
              Si        Si                            
           Si                                         
                Si                                    
       Si                                             
                                                      
                                                      
                                                      
                                                      

Positions:
   0 Si     0.000000    0.000000    0.000000    ( 0.0000,  0.0000,  0.0000)
   1 Si     1.357500    1.357500    1.357500    ( 0.0000,  0.0000,  0.0000)
   2 Si     2.715000    2.715000    0.000000    ( 0.0000,  0.0000,  0.0000)
   3 Si     4.072500    4.072500    1.357500    ( 0.0000,  0.0000,  0.0000)
   4 Si     5.430000    5.430000    0.000000    ( 0.0000,  0.0000,  0.0000)
   5 Si     6.787500    6.787500    1.357500    ( 0.0000,  0.0000,  0.0000)
   6 Si     2.715000    0.000000    2.715000    ( 0.0000,  0.0000,  0.0000)
   7 Si     4.072500    1.357500    4.072500    ( 0.0000,  0.0000,  0.0000)
   8 Si     5.430000    2.715000    2.715000    ( 0.0000,  0.0000,  0.0000)
   9 Si     6.787500    4.072500    4.072500    ( 0.0000,  0.0000,  0.0000)
  10 Si     8.145000    5.430000    2.715000    ( 0.0000,  0.0000,  0.0000)
  11 Si     9.502500    6.787500    4.072500    ( 0.0000,  0.0000,  0.0000)
  12 Si     5.430000    0.000000    5.430000    ( 0.0000,  0.0000,  0.0000)
  13 Si     6.787500    1.357500    6.787500    ( 0.0000,  0.0000,  0.0000)
  14 Si     8.145000    2.715000    5.430000    ( 0.0000,  0.0000,  0.0000)
  15 Si     9.502500    4.072500    6.787500    ( 0.0000,  0.0000,  0.0000)
  16 Si    10.860000    5.430000    5.430000    ( 0.0000,  0.0000,  0.0000)
  17 Si    12.217500    6.787500    6.787500    ( 0.0000,  0.0000,  0.0000)
  18 Si     0.000000    2.715000    2.715000    ( 0.0000,  0.0000,  0.0000)
  19 Si     1.357500    4.072500    4.072500    ( 0.0000,  0.0000,  0.0000)
  20 Si     2.715000    5.430000    2.715000    ( 0.0000,  0.0000,  0.0000)
  21 Si     4.072500    6.787500    4.072500    ( 0.0000,  0.0000,  0.0000)
  22 Si     5.430000    8.145000    2.715000    ( 0.0000,  0.0000,  0.0000)
  23 Si     6.787500    9.502500    4.072500    ( 0.0000,  0.0000,  0.0000)
  24 Si     2.715000    2.715000    5.430000    ( 0.0000,  0.0000,  0.0000)
  25 Si     4.072500    4.072500    6.787500    ( 0.0000,  0.0000,  0.0000)
  26 Si     5.430000    5.420000    5.430000    ( 0.0000,  0.0000,  0.0000)
  27 Si     6.787500    6.787500    6.787500    ( 0.0000,  0.0000,  0.0000)
  28 Si     8.145000    8.145000    5.430000    ( 0.0000,  0.0000,  0.0000)
  29 Si     9.502500    9.502500    6.787500    ( 0.0000,  0.0000,  0.0000)
  30 Si     5.430000    2.715000    8.145000    ( 0.0000,  0.0000,  0.0000)
  31 Si     6.787500    4.072500    9.502500    ( 0.0000,  0.0000,  0.0000)
  32 Si     8.145000    5.430000    8.145000    ( 0.0000,  0.0000,  0.0000)
  33 Si     9.502500    6.787500    9.502500    ( 0.0000,  0.0000,  0.0000)
  34 Si    10.860000    8.145000    8.145000    ( 0.0000,  0.0000,  0.0000)
  35 Si    12.217500    9.502500    9.502500    ( 0.0000,  0.0000,  0.0000)
  36 Si     0.000000    5.430000    5.430000    ( 0.0000,  0.0000,  0.0000)
  37 Si     1.357500    6.787500    6.787500    ( 0.0000,  0.0000,  0.0000)
  38 Si     2.715000    8.145000    5.430000    ( 0.0000,  0.0000,  0.0000)
  39 Si     4.072500    9.502500    6.787500    ( 0.0000,  0.0000,  0.0000)
  40 Si     5.430000   10.860000    5.430000    ( 0.0000,  0.0000,  0.0000)
  41 Si     6.787500   12.217500    6.787500    ( 0.0000,  0.0000,  0.0000)
  42 Si     2.715000    5.430000    8.145000    ( 0.0000,  0.0000,  0.0000)
  43 Si     4.072500    6.787500    9.502500    ( 0.0000,  0.0000,  0.0000)
  44 Si     5.430000    8.145000    8.145000    ( 0.0000,  0.0000,  0.0000)
  45 Si     6.787500    9.502500    9.502500    ( 0.0000,  0.0000,  0.0000)
  46 Si     8.145000   10.860000    8.145000    ( 0.0000,  0.0000,  0.0000)
  47 Si     9.502500   12.217500    9.502500    ( 0.0000,  0.0000,  0.0000)
  48 Si     5.430000    5.430000   10.860000    ( 0.0000,  0.0000,  0.0000)
  49 Si     6.787500    6.787500   12.217500    ( 0.0000,  0.0000,  0.0000)
  50 Si     8.145000    8.145000   10.860000    ( 0.0000,  0.0000,  0.0000)
  51 Si     9.502500    9.502500   12.217500    ( 0.0000,  0.0000,  0.0000)
  52 Si    10.860000   10.860000   10.860000    ( 0.0000,  0.0000,  0.0000)
  53 Si    12.217500   12.217500   12.217500    ( 0.0000,  0.0000,  0.0000)

Unit cell:
           periodic     x           y           z      points  spacing
  1. axis:    yes    0.000000    8.145000    8.145000    68     0.1383
  2. axis:    yes    8.145000    0.000000    8.145000    68     0.1383
  3. axis:    yes    8.145000    8.145000    0.000000    68     0.1383

  Lengths:  11.518769  11.518769  11.518769
  Angles:   60.000000  60.000000  60.000000

Effective grid spacing dv^(1/3) = 0.1509

     iter     time        total  log10-change:
                         energy   eigst   dens
iter:   1 09:44:26  -286.131147        c
iter:   2 09:45:38  -286.131049        c -3.60
iter:   3 09:46:50  -286.130851c       c -3.70
iter:   4 09:52:06  -286.130826c       c -3.87
iter:   5 09:53:17  -286.130824c       c -4.22c

Converged after 5 iterations.

Dipole moment: (-99.311616, -99.312194, -99.310933) |e|*Ang

Energy contributions relative to reference atoms: (reference = -425862.589512)

Kinetic:       +383.283512
Potential:     -333.530413
External:        +0.000000
XC:            -335.174433
Entropy (-ST):   -0.021617
Local:           -0.698681
SIC:             +0.000000
--------------------------
Free energy:   -286.141632
Extrapolated:  -286.130824

Showing only first 2 kpts
 Kpt  Band  Eigenvalues  Occupancy
  0   106      5.30733    1.90661
  0   107      5.30916    1.90498
  0   108      6.09299    0.01569
  0   109      6.09330    0.01564

  1   106      5.06717    1.99117
  1   107      5.06938    1.99097
  1   108      6.34830    0.00123
  1   109      6.34949    0.00122


Fermi level: 5.60897

Gap: 0.649 eV
Transition (v -> c):
  (s=0, k=0, n=107, [0.00, 0.00, 0.00]) -> (s=0, k=10, n=108, [0.33, 0.00, 0.33])
Direct/indirect transitions are different
Direct gap: 0.784 eV
Transition at: (s=0, k=0, n=107, [0.00, 0.00, 0.00])

Forces in eV/Ang:
  0 Si    0.00100    0.00015    0.00167
  1 Si    0.00038    0.00067    0.00120
  2 Si    0.00269    0.00185   -0.00109
  3 Si   -0.00036    0.00090    0.00001
  4 Si   -0.00242   -0.00271    0.00045
  5 Si   -0.00171   -0.00046    0.00156
  6 Si    0.00073   -0.00065    0.00141
  7 Si    0.00043    0.00073    0.00107
  8 Si    0.00243   -0.00346   -0.00354
  9 Si    0.02440   -0.03533   -0.02533
 10 Si   -0.00129    0.00396    0.00279
 11 Si   -0.00093    0.00236   -0.00002
 12 Si   -0.00219    0.00077   -0.00180
 13 Si   -0.00223    0.00233   -0.00160
 14 Si    0.00186   -0.00027   -0.00239
 15 Si   -0.00098    0.00033    0.00200
 16 Si   -0.00049    0.00058    0.00172
 17 Si   -0.00132    0.00109    0.00162
 18 Si   -0.00069    0.00078    0.00229
 19 Si    0.00130    0.00065    0.00003
 20 Si   -0.00239    0.00705   -0.00216
 21 Si    0.02426   -0.03551    0.02441
 22 Si   -0.00068   -0.00232    0.00414
 23 Si    0.00214   -0.00149   -0.00106
 24 Si   -0.00317   -0.00285    0.00394
 25 Si   -0.02596   -0.03581    0.02503
 26 Si    0.00526    0.14557    0.00175
 27 Si   -0.02665   -0.03683   -0.02651
 28 Si   -0.00177   -0.00145   -0.00177
 29 Si    0.00124    0.00101   -0.00152
 30 Si   -0.00390    0.00033    0.00149
 31 Si    0.00162    0.00009   -0.00226
 32 Si    0.00136    0.00455    0.00158
 33 Si    0.00176   -0.00459    0.00081
 34 Si   -0.00117   -0.00062    0.00064
 35 Si    0.00004   -0.00165   -0.00134
 36 Si    0.00120   -0.00249   -0.00182
 37 Si    0.00209   -0.00130   -0.00192
 38 Si    0.00384   -0.00224   -0.00079
 39 Si   -0.00060   -0.00073    0.00168
 40 Si    0.00088   -0.00091    0.00170
 41 Si    0.00073   -0.00095    0.00157
 42 Si    0.00309    0.00235   -0.00159
 43 Si    0.00019    0.00151   -0.00145
 44 Si   -0.00167   -0.00137   -0.00146
 45 Si   -0.00105    0.00144    0.00073
 46 Si   -0.00065   -0.00113   -0.00036
 47 Si   -0.00134   -0.00351   -0.00142
 48 Si    0.00111    0.00079   -0.00123
 49 Si    0.00113    0.00144   -0.00083
 50 Si    0.00074   -0.00023   -0.00127
 51 Si   -0.00082   -0.00122   -0.00043
 52 Si   -0.00060   -0.00157   -0.00030
 53 Si   -0.00063   -0.00031    0.00022

System changes: positions 

Initializing position-dependent things.

Density initialized from wave functions
                                                      
                                                      
                                                      
                                                      
                                             Si       
                                    Si                
                                         Si           
                            Si        Si              
                                Si                    
                              Si           Si         
                     Si Si     Si SSi                 
                          Si           Si             
                       Si Si        Si                
                 Si        Si  Si                     
               Si           Si           Si           
                   SSiSi      SiSSi                   
           Si           Si           Si               
                     Si  Si        Si                 
                Si        Si Si                       
             Si           Si                          
                 SSi Si     Si Si                     
         Si           Si                              
                    Si                                
              Si        Si                            
           Si                                         
                Si                                    
       Si                                             
                                                      
                                                      
                                                      
                                                      

Positions:
   0 Si     0.000000    0.000000    0.000000    ( 0.0000,  0.0000,  0.0000)
   1 Si     1.357500    1.357500    1.357500    ( 0.0000,  0.0000,  0.0000)
   2 Si     2.715000    2.715000    0.000000    ( 0.0000,  0.0000,  0.0000)
   3 Si     4.072500    4.072500    1.357500    ( 0.0000,  0.0000,  0.0000)
   4 Si     5.430000    5.430000    0.000000    ( 0.0000,  0.0000,  0.0000)
   5 Si     6.787500    6.787500    1.357500    ( 0.0000,  0.0000,  0.0000)
   6 Si     2.715000    0.000000    2.715000    ( 0.0000,  0.0000,  0.0000)
   7 Si     4.072500    1.357500    4.072500    ( 0.0000,  0.0000,  0.0000)
   8 Si     5.430000    2.715000    2.715000    ( 0.0000,  0.0000,  0.0000)
   9 Si     6.787500    4.072500    4.072500    ( 0.0000,  0.0000,  0.0000)
  10 Si     8.145000    5.430000    2.715000    ( 0.0000,  0.0000,  0.0000)
  11 Si     9.502500    6.787500    4.072500    ( 0.0000,  0.0000,  0.0000)
  12 Si     5.430000    0.000000    5.430000    ( 0.0000,  0.0000,  0.0000)
  13 Si     6.787500    1.357500    6.787500    ( 0.0000,  0.0000,  0.0000)
  14 Si     8.145000    2.715000    5.430000    ( 0.0000,  0.0000,  0.0000)
  15 Si     9.502500    4.072500    6.787500    ( 0.0000,  0.0000,  0.0000)
  16 Si    10.860000    5.430000    5.430000    ( 0.0000,  0.0000,  0.0000)
  17 Si    12.217500    6.787500    6.787500    ( 0.0000,  0.0000,  0.0000)
  18 Si     0.000000    2.715000    2.715000    ( 0.0000,  0.0000,  0.0000)
  19 Si     1.357500    4.072500    4.072500    ( 0.0000,  0.0000,  0.0000)
  20 Si     2.715000    5.430000    2.715000    ( 0.0000,  0.0000,  0.0000)
  21 Si     4.072500    6.787500    4.072500    ( 0.0000,  0.0000,  0.0000)
  22 Si     5.430000    8.145000    2.715000    ( 0.0000,  0.0000,  0.0000)
  23 Si     6.787500    9.502500    4.072500    ( 0.0000,  0.0000,  0.0000)
  24 Si     2.715000    2.715000    5.430000    ( 0.0000,  0.0000,  0.0000)
  25 Si     4.072500    4.072500    6.787500    ( 0.0000,  0.0000,  0.0000)
  26 Si     5.430000    5.440000    5.430000    ( 0.0000,  0.0000,  0.0000)
  27 Si     6.787500    6.787500    6.787500    ( 0.0000,  0.0000,  0.0000)
  28 Si     8.145000    8.145000    5.430000    ( 0.0000,  0.0000,  0.0000)
  29 Si     9.502500    9.502500    6.787500    ( 0.0000,  0.0000,  0.0000)
  30 Si     5.430000    2.715000    8.145000    ( 0.0000,  0.0000,  0.0000)
  31 Si     6.787500    4.072500    9.502500    ( 0.0000,  0.0000,  0.0000)
  32 Si     8.145000    5.430000    8.145000    ( 0.0000,  0.0000,  0.0000)
  33 Si     9.502500    6.787500    9.502500    ( 0.0000,  0.0000,  0.0000)
  34 Si    10.860000    8.145000    8.145000    ( 0.0000,  0.0000,  0.0000)
  35 Si    12.217500    9.502500    9.502500    ( 0.0000,  0.0000,  0.0000)
  36 Si     0.000000    5.430000    5.430000    ( 0.0000,  0.0000,  0.0000)
  37 Si     1.357500    6.787500    6.787500    ( 0.0000,  0.0000,  0.0000)
  38 Si     2.715000    8.145000    5.430000    ( 0.0000,  0.0000,  0.0000)
  39 Si     4.072500    9.502500    6.787500    ( 0.0000,  0.0000,  0.0000)
  40 Si     5.430000   10.860000    5.430000    ( 0.0000,  0.0000,  0.0000)
  41 Si     6.787500   12.217500    6.787500    ( 0.0000,  0.0000,  0.0000)
  42 Si     2.715000    5.430000    8.145000    ( 0.0000,  0.0000,  0.0000)
  43 Si     4.072500    6.787500    9.502500    ( 0.0000,  0.0000,  0.0000)
  44 Si     5.430000    8.145000    8.145000    ( 0.0000,  0.0000,  0.0000)
  45 Si     6.787500    9.502500    9.502500    ( 0.0000,  0.0000,  0.0000)
  46 Si     8.145000   10.860000    8.145000    ( 0.0000,  0.0000,  0.0000)
  47 Si     9.502500   12.217500    9.502500    ( 0.0000,  0.0000,  0.0000)
  48 Si     5.430000    5.430000   10.860000    ( 0.0000,  0.0000,  0.0000)
  49 Si     6.787500    6.787500   12.217500    ( 0.0000,  0.0000,  0.0000)
  50 Si     8.145000    8.145000   10.860000    ( 0.0000,  0.0000,  0.0000)
  51 Si     9.502500    9.502500   12.217500    ( 0.0000,  0.0000,  0.0000)
  52 Si    10.860000   10.860000   10.860000    ( 0.0000,  0.0000,  0.0000)
  53 Si    12.217500   12.217500   12.217500    ( 0.0000,  0.0000,  0.0000)

Unit cell:
           periodic     x           y           z      points  spacing
  1. axis:    yes    0.000000    8.145000    8.145000    68     0.1383
  2. axis:    yes    8.145000    0.000000    8.145000    68     0.1383
  3. axis:    yes    8.145000    8.145000    0.000000    68     0.1383

  Lengths:  11.518769  11.518769  11.518769
  Angles:   60.000000  60.000000  60.000000

Effective grid spacing dv^(1/3) = 0.1509

     iter     time        total  log10-change:
                         energy   eigst   dens
iter:   1 10:00:06  -286.131474        c
iter:   2 10:01:20  -286.131287        c -3.46
iter:   3 10:02:33  -286.130906c       c -3.56
iter:   4 10:03:46  -286.130856c       c -3.70
iter:   5 10:04:59  -286.130851c       c -4.06c

Converged after 5 iterations.

Dipole moment: (-99.310950, -99.309001, -99.310929) |e|*Ang

Energy contributions relative to reference atoms: (reference = -425862.589512)

Kinetic:       +383.283995
Potential:     -333.530955
External:        +0.000000
XC:            -335.174474
Entropy (-ST):   -0.021617
Local:           -0.698609
SIC:             +0.000000
--------------------------
Free energy:   -286.141659
Extrapolated:  -286.130851

Showing only first 2 kpts
 Kpt  Band  Eigenvalues  Occupancy
  0   106      5.30734    1.90661
  0   107      5.30921    1.90493
  0   108      6.09295    0.01569
  0   109      6.09330    0.01564

  1   106      5.06619    1.99125
  1   107      5.06842    1.99106
  1   108      6.34780    0.00124
  1   109      6.34928    0.00122


Fermi level: 5.60897

Gap: 0.649 eV
Transition (v -> c):
  (s=0, k=0, n=107, [0.00, 0.00, 0.00]) -> (s=0, k=10, n=108, [0.33, 0.00, 0.33])
Direct/indirect transitions are different
Direct gap: 0.784 eV
Transition at: (s=0, k=0, n=107, [0.00, 0.00, 0.00])

Forces in eV/Ang:
  0 Si   -0.00137    0.00086   -0.00136
  1 Si    0.00117    0.00252    0.00120
  2 Si    0.00033    0.00256    0.00195
  3 Si   -0.00050   -0.00056    0.00066
  4 Si   -0.00112   -0.00012    0.00047
  5 Si   -0.00185   -0.00191    0.00090
  6 Si    0.00333    0.00118    0.00333
  7 Si   -0.00112   -0.00128   -0.00117
  8 Si   -0.00085    0.00055    0.00036
  9 Si   -0.02549    0.03541    0.02483
 10 Si    0.00134   -0.00554    0.00040
 11 Si   -0.00167    0.00115    0.00056
 12 Si   -0.00150   -0.00061   -0.00158
 13 Si   -0.00045   -0.00045   -0.00049
 14 Si   -0.00179    0.00372    0.00084
 15 Si   -0.00225   -0.00024    0.00195
 16 Si   -0.00132    0.00295    0.00110
 17 Si   -0.00009    0.00255    0.00128
 18 Si    0.00192    0.00259    0.00037
 19 Si    0.00055   -0.00057   -0.00056
 20 Si    0.00020   -0.00246    0.00019
 21 Si   -0.02564    0.03524   -0.02577
 22 Si   -0.00396    0.00171    0.00021
 23 Si    0.00060   -0.00350    0.00117
 24 Si    0.00033    0.00051   -0.00092
 25 Si    0.02482    0.03527   -0.02548
 26 Si    0.00112   -0.14674    0.00092
 27 Si    0.02404    0.03417    0.02391
 28 Si    0.00177    0.00196    0.00311
 29 Si    0.00207    0.00047   -0.00153
 30 Si    0.00091    0.00367   -0.00176
 31 Si    0.00200   -0.00025   -0.00215
 32 Si   -0.00138   -0.00331   -0.00139
 33 Si    0.00121    0.00111    0.00121
 34 Si    0.00044    0.00073   -0.00073
 35 Si   -0.00042   -0.00259   -0.00273
 36 Si    0.00039   -0.00012   -0.00120
 37 Si    0.00081   -0.00187   -0.00186
 38 Si    0.00017    0.00178   -0.00401
 39 Si    0.00118   -0.00352    0.00058
 40 Si    0.00156   -0.00234    0.00149
 41 Si    0.00198    0.00049    0.00194
 42 Si    0.00031   -0.00551    0.00143
 43 Si    0.00057    0.00118   -0.00157
 44 Si    0.00315    0.00202    0.00181
 45 Si   -0.00152    0.00051    0.00211
 46 Si    0.00095    0.00023    0.00101
 47 Si   -0.00189    0.00218   -0.00183
 48 Si    0.00118    0.00295   -0.00125
 49 Si    0.00128    0.00251   -0.00009
 50 Si   -0.00076    0.00077    0.00047
 51 Si   -0.00276   -0.00256   -0.00043
 52 Si   -0.00211   -0.00058   -0.00205
 53 Si   -0.00050    0.00074   -0.00054

System changes: positions 

Initializing position-dependent things.

Density initialized from wave functions
                                                      
                                                      
                                                      
                                                      
                                             Si       
                                    Si                
                                         Si           
                            Si        Si              
                                Si                    
                              Si           Si         
                     Si Si     Si SSi                 
                          Si           Si             
                       Si Si        Si                
                 Si        Si  Si                     
               Si           Si           Si           
                   SSiSi      SiSSi                   
           Si           Si           Si               
                     Si  Si        Si                 
                Si        Si Si                       
             Si           Si                          
                 SSi Si     Si Si                     
         Si           Si                              
                    Si                                
              Si        Si                            
           Si                                         
                Si                                    
       Si                                             
                                                      
                                                      
                                                      
                                                      

Positions:
   0 Si     0.000000    0.000000    0.000000    ( 0.0000,  0.0000,  0.0000)
   1 Si     1.357500    1.357500    1.357500    ( 0.0000,  0.0000,  0.0000)
   2 Si     2.715000    2.715000    0.000000    ( 0.0000,  0.0000,  0.0000)
   3 Si     4.072500    4.072500    1.357500    ( 0.0000,  0.0000,  0.0000)
   4 Si     5.430000    5.430000    0.000000    ( 0.0000,  0.0000,  0.0000)
   5 Si     6.787500    6.787500    1.357500    ( 0.0000,  0.0000,  0.0000)
   6 Si     2.715000    0.000000    2.715000    ( 0.0000,  0.0000,  0.0000)
   7 Si     4.072500    1.357500    4.072500    ( 0.0000,  0.0000,  0.0000)
   8 Si     5.430000    2.715000    2.715000    ( 0.0000,  0.0000,  0.0000)
   9 Si     6.787500    4.072500    4.072500    ( 0.0000,  0.0000,  0.0000)
  10 Si     8.145000    5.430000    2.715000    ( 0.0000,  0.0000,  0.0000)
  11 Si     9.502500    6.787500    4.072500    ( 0.0000,  0.0000,  0.0000)
  12 Si     5.430000    0.000000    5.430000    ( 0.0000,  0.0000,  0.0000)
  13 Si     6.787500    1.357500    6.787500    ( 0.0000,  0.0000,  0.0000)
  14 Si     8.145000    2.715000    5.430000    ( 0.0000,  0.0000,  0.0000)
  15 Si     9.502500    4.072500    6.787500    ( 0.0000,  0.0000,  0.0000)
  16 Si    10.860000    5.430000    5.430000    ( 0.0000,  0.0000,  0.0000)
  17 Si    12.217500    6.787500    6.787500    ( 0.0000,  0.0000,  0.0000)
  18 Si     0.000000    2.715000    2.715000    ( 0.0000,  0.0000,  0.0000)
  19 Si     1.357500    4.072500    4.072500    ( 0.0000,  0.0000,  0.0000)
  20 Si     2.715000    5.430000    2.715000    ( 0.0000,  0.0000,  0.0000)
  21 Si     4.072500    6.787500    4.072500    ( 0.0000,  0.0000,  0.0000)
  22 Si     5.430000    8.145000    2.715000    ( 0.0000,  0.0000,  0.0000)
  23 Si     6.787500    9.502500    4.072500    ( 0.0000,  0.0000,  0.0000)
  24 Si     2.715000    2.715000    5.430000    ( 0.0000,  0.0000,  0.0000)
  25 Si     4.072500    4.072500    6.787500    ( 0.0000,  0.0000,  0.0000)
  26 Si     5.430000    5.430000    5.420000    ( 0.0000,  0.0000,  0.0000)
  27 Si     6.787500    6.787500    6.787500    ( 0.0000,  0.0000,  0.0000)
  28 Si     8.145000    8.145000    5.430000    ( 0.0000,  0.0000,  0.0000)
  29 Si     9.502500    9.502500    6.787500    ( 0.0000,  0.0000,  0.0000)
  30 Si     5.430000    2.715000    8.145000    ( 0.0000,  0.0000,  0.0000)
  31 Si     6.787500    4.072500    9.502500    ( 0.0000,  0.0000,  0.0000)
  32 Si     8.145000    5.430000    8.145000    ( 0.0000,  0.0000,  0.0000)
  33 Si     9.502500    6.787500    9.502500    ( 0.0000,  0.0000,  0.0000)
  34 Si    10.860000    8.145000    8.145000    ( 0.0000,  0.0000,  0.0000)
  35 Si    12.217500    9.502500    9.502500    ( 0.0000,  0.0000,  0.0000)
  36 Si     0.000000    5.430000    5.430000    ( 0.0000,  0.0000,  0.0000)
  37 Si     1.357500    6.787500    6.787500    ( 0.0000,  0.0000,  0.0000)
  38 Si     2.715000    8.145000    5.430000    ( 0.0000,  0.0000,  0.0000)
  39 Si     4.072500    9.502500    6.787500    ( 0.0000,  0.0000,  0.0000)
  40 Si     5.430000   10.860000    5.430000    ( 0.0000,  0.0000,  0.0000)
  41 Si     6.787500   12.217500    6.787500    ( 0.0000,  0.0000,  0.0000)
  42 Si     2.715000    5.430000    8.145000    ( 0.0000,  0.0000,  0.0000)
  43 Si     4.072500    6.787500    9.502500    ( 0.0000,  0.0000,  0.0000)
  44 Si     5.430000    8.145000    8.145000    ( 0.0000,  0.0000,  0.0000)
  45 Si     6.787500    9.502500    9.502500    ( 0.0000,  0.0000,  0.0000)
  46 Si     8.145000   10.860000    8.145000    ( 0.0000,  0.0000,  0.0000)
  47 Si     9.502500   12.217500    9.502500    ( 0.0000,  0.0000,  0.0000)
  48 Si     5.430000    5.430000   10.860000    ( 0.0000,  0.0000,  0.0000)
  49 Si     6.787500    6.787500   12.217500    ( 0.0000,  0.0000,  0.0000)
  50 Si     8.145000    8.145000   10.860000    ( 0.0000,  0.0000,  0.0000)
  51 Si     9.502500    9.502500   12.217500    ( 0.0000,  0.0000,  0.0000)
  52 Si    10.860000   10.860000   10.860000    ( 0.0000,  0.0000,  0.0000)
  53 Si    12.217500   12.217500   12.217500    ( 0.0000,  0.0000,  0.0000)

Unit cell:
           periodic     x           y           z      points  spacing
  1. axis:    yes    0.000000    8.145000    8.145000    68     0.1383
  2. axis:    yes    8.145000    0.000000    8.145000    68     0.1383
  3. axis:    yes    8.145000    8.145000    0.000000    68     0.1383

  Lengths:  11.518769  11.518769  11.518769
  Angles:   60.000000  60.000000  60.000000

Effective grid spacing dv^(1/3) = 0.1509

     iter     time        total  log10-change:
                         energy   eigst   dens
iter:   1 10:11:42  -286.131147        c
iter:   2 10:12:54  -286.131049        c -3.60
iter:   3 10:14:07  -286.130851c       c -3.70
iter:   4 10:15:20  -286.130826c       c -3.87
iter:   5 10:16:32  -286.130824c       c -4.22c

Converged after 5 iterations.

Dipole moment: (-99.310935, -99.311614, -99.312192) |e|*Ang

Energy contributions relative to reference atoms: (reference = -425862.589512)

Kinetic:       +383.283512
Potential:     -333.530413
External:        +0.000000
XC:            -335.174433
Entropy (-ST):   -0.021617
Local:           -0.698681
SIC:             +0.000000
--------------------------
Free energy:   -286.141632
Extrapolated:  -286.130824

Showing only first 2 kpts
 Kpt  Band  Eigenvalues  Occupancy
  0   106      5.30733    1.90661
  0   107      5.30916    1.90498
  0   108      6.09299    0.01569
  0   109      6.09330    0.01564

  1   106      5.06623    1.99125
  1   107      5.06837    1.99106
  1   108      6.34782    0.00124
  1   109      6.34926    0.00122


Fermi level: 5.60897

Gap: 0.649 eV
Transition (v -> c):
  (s=0, k=0, n=107, [0.00, 0.00, 0.00]) -> (s=0, k=12, n=108, [0.33, 0.33, 0.00])
Direct/indirect transitions are different
Direct gap: 0.784 eV
Transition at: (s=0, k=0, n=107, [0.00, 0.00, 0.00])

Forces in eV/Ang:
  0 Si    0.00168    0.00100    0.00015
  1 Si    0.00120    0.00038    0.00068
  2 Si    0.00142    0.00073   -0.00066
  3 Si    0.00107    0.00044    0.00073
  4 Si   -0.00182   -0.00220    0.00078
  5 Si   -0.00161   -0.00223    0.00234
  6 Si    0.00230   -0.00069    0.00078
  7 Si    0.00003    0.00130    0.00066
  8 Si    0.00394   -0.00317   -0.00285
  9 Si    0.02502   -0.02595   -0.03581
 10 Si    0.00149   -0.00390    0.00033
 11 Si   -0.00225    0.00162    0.00009
 12 Si   -0.00183    0.00120   -0.00250
 13 Si   -0.00193    0.00209   -0.00130
 14 Si   -0.00158    0.00309    0.00234
 15 Si   -0.00144    0.00019    0.00150
 16 Si   -0.00122    0.00111    0.00079
 17 Si   -0.00084    0.00113    0.00144
 18 Si   -0.00108    0.00268    0.00185
 19 Si    0.00003   -0.00036    0.00090
 20 Si   -0.00353    0.00243   -0.00346
 21 Si   -0.02533    0.02440   -0.03534
 22 Si   -0.00239    0.00185   -0.00027
 23 Si    0.00200   -0.00099    0.00033
 24 Si   -0.00215   -0.00239    0.00705
 25 Si    0.02441    0.02426   -0.03552
 26 Si    0.00174    0.00524    0.14555
 27 Si   -0.02650   -0.02665   -0.03683
 28 Si    0.00159    0.00135    0.00455
 29 Si    0.00082    0.00175   -0.00459
 30 Si   -0.00079    0.00384   -0.00225
 31 Si    0.00168   -0.00061   -0.00074
 32 Si   -0.00145   -0.00167   -0.00137
 33 Si    0.00074   -0.00105    0.00144
 34 Si   -0.00126    0.00074   -0.00023
 35 Si   -0.00043   -0.00083   -0.00123
 36 Si    0.00046   -0.00242   -0.00271
 37 Si    0.00158   -0.00170   -0.00045
 38 Si    0.00280   -0.00129    0.00396
 39 Si   -0.00003   -0.00092    0.00235
 40 Si    0.00170   -0.00048    0.00058
 41 Si    0.00160   -0.00132    0.00109
 42 Si    0.00414   -0.00068   -0.00231
 43 Si   -0.00107    0.00214   -0.00148
 44 Si   -0.00178   -0.00176   -0.00144
 45 Si   -0.00152    0.00125    0.00101
 46 Si    0.00064   -0.00117   -0.00062
 47 Si   -0.00133    0.00004   -0.00165
 48 Si    0.00168    0.00088   -0.00091
 49 Si    0.00155    0.00073   -0.00095
 50 Si   -0.00036   -0.00065   -0.00113
 51 Si   -0.00141   -0.00133   -0.00351
 52 Si   -0.00030   -0.00059   -0.00156
 53 Si    0.00020   -0.00062   -0.00030

System changes: positions 

Initializing position-dependent things.

Density initialized from wave functions
                                                      
                                                      
                                                      
                                                      
                                             Si       
                                    Si                
                                         Si           
                            Si        Si              
                                Si                    
                              Si           Si         
                     Si Si     Si SSi                 
                          Si           Si             
                       Si Si        Si                
                 Si        Si  Si                     
               Si           Si           Si           
                   SSiSi      SiSSi                   
           Si           Si           Si               
                     Si  Si        Si                 
                Si        Si Si                       
             Si           Si                          
                 SSi Si     Si Si                     
         Si           Si                              
                    Si                                
              Si        Si                            
           Si                                         
                Si                                    
       Si                                             
                                                      
                                                      
                                                      
                                                      

Positions:
   0 Si     0.000000    0.000000    0.000000    ( 0.0000,  0.0000,  0.0000)
   1 Si     1.357500    1.357500    1.357500    ( 0.0000,  0.0000,  0.0000)
   2 Si     2.715000    2.715000    0.000000    ( 0.0000,  0.0000,  0.0000)
   3 Si     4.072500    4.072500    1.357500    ( 0.0000,  0.0000,  0.0000)
   4 Si     5.430000    5.430000    0.000000    ( 0.0000,  0.0000,  0.0000)
   5 Si     6.787500    6.787500    1.357500    ( 0.0000,  0.0000,  0.0000)
   6 Si     2.715000    0.000000    2.715000    ( 0.0000,  0.0000,  0.0000)
   7 Si     4.072500    1.357500    4.072500    ( 0.0000,  0.0000,  0.0000)
   8 Si     5.430000    2.715000    2.715000    ( 0.0000,  0.0000,  0.0000)
   9 Si     6.787500    4.072500    4.072500    ( 0.0000,  0.0000,  0.0000)
  10 Si     8.145000    5.430000    2.715000    ( 0.0000,  0.0000,  0.0000)
  11 Si     9.502500    6.787500    4.072500    ( 0.0000,  0.0000,  0.0000)
  12 Si     5.430000    0.000000    5.430000    ( 0.0000,  0.0000,  0.0000)
  13 Si     6.787500    1.357500    6.787500    ( 0.0000,  0.0000,  0.0000)
  14 Si     8.145000    2.715000    5.430000    ( 0.0000,  0.0000,  0.0000)
  15 Si     9.502500    4.072500    6.787500    ( 0.0000,  0.0000,  0.0000)
  16 Si    10.860000    5.430000    5.430000    ( 0.0000,  0.0000,  0.0000)
  17 Si    12.217500    6.787500    6.787500    ( 0.0000,  0.0000,  0.0000)
  18 Si     0.000000    2.715000    2.715000    ( 0.0000,  0.0000,  0.0000)
  19 Si     1.357500    4.072500    4.072500    ( 0.0000,  0.0000,  0.0000)
  20 Si     2.715000    5.430000    2.715000    ( 0.0000,  0.0000,  0.0000)
  21 Si     4.072500    6.787500    4.072500    ( 0.0000,  0.0000,  0.0000)
  22 Si     5.430000    8.145000    2.715000    ( 0.0000,  0.0000,  0.0000)
  23 Si     6.787500    9.502500    4.072500    ( 0.0000,  0.0000,  0.0000)
  24 Si     2.715000    2.715000    5.430000    ( 0.0000,  0.0000,  0.0000)
  25 Si     4.072500    4.072500    6.787500    ( 0.0000,  0.0000,  0.0000)
  26 Si     5.430000    5.430000    5.440000    ( 0.0000,  0.0000,  0.0000)
  27 Si     6.787500    6.787500    6.787500    ( 0.0000,  0.0000,  0.0000)
  28 Si     8.145000    8.145000    5.430000    ( 0.0000,  0.0000,  0.0000)
  29 Si     9.502500    9.502500    6.787500    ( 0.0000,  0.0000,  0.0000)
  30 Si     5.430000    2.715000    8.145000    ( 0.0000,  0.0000,  0.0000)
  31 Si     6.787500    4.072500    9.502500    ( 0.0000,  0.0000,  0.0000)
  32 Si     8.145000    5.430000    8.145000    ( 0.0000,  0.0000,  0.0000)
  33 Si     9.502500    6.787500    9.502500    ( 0.0000,  0.0000,  0.0000)
  34 Si    10.860000    8.145000    8.145000    ( 0.0000,  0.0000,  0.0000)
  35 Si    12.217500    9.502500    9.502500    ( 0.0000,  0.0000,  0.0000)
  36 Si     0.000000    5.430000    5.430000    ( 0.0000,  0.0000,  0.0000)
  37 Si     1.357500    6.787500    6.787500    ( 0.0000,  0.0000,  0.0000)
  38 Si     2.715000    8.145000    5.430000    ( 0.0000,  0.0000,  0.0000)
  39 Si     4.072500    9.502500    6.787500    ( 0.0000,  0.0000,  0.0000)
  40 Si     5.430000   10.860000    5.430000    ( 0.0000,  0.0000,  0.0000)
  41 Si     6.787500   12.217500    6.787500    ( 0.0000,  0.0000,  0.0000)
  42 Si     2.715000    5.430000    8.145000    ( 0.0000,  0.0000,  0.0000)
  43 Si     4.072500    6.787500    9.502500    ( 0.0000,  0.0000,  0.0000)
  44 Si     5.430000    8.145000    8.145000    ( 0.0000,  0.0000,  0.0000)
  45 Si     6.787500    9.502500    9.502500    ( 0.0000,  0.0000,  0.0000)
  46 Si     8.145000   10.860000    8.145000    ( 0.0000,  0.0000,  0.0000)
  47 Si     9.502500   12.217500    9.502500    ( 0.0000,  0.0000,  0.0000)
  48 Si     5.430000    5.430000   10.860000    ( 0.0000,  0.0000,  0.0000)
  49 Si     6.787500    6.787500   12.217500    ( 0.0000,  0.0000,  0.0000)
  50 Si     8.145000    8.145000   10.860000    ( 0.0000,  0.0000,  0.0000)
  51 Si     9.502500    9.502500   12.217500    ( 0.0000,  0.0000,  0.0000)
  52 Si    10.860000   10.860000   10.860000    ( 0.0000,  0.0000,  0.0000)
  53 Si    12.217500   12.217500   12.217500    ( 0.0000,  0.0000,  0.0000)

Unit cell:
           periodic     x           y           z      points  spacing
  1. axis:    yes    0.000000    8.145000    8.145000    68     0.1383
  2. axis:    yes    8.145000    0.000000    8.145000    68     0.1383
  3. axis:    yes    8.145000    8.145000    0.000000    68     0.1383

  Lengths:  11.518769  11.518769  11.518769
  Angles:   60.000000  60.000000  60.000000

Effective grid spacing dv^(1/3) = 0.1509

     iter     time        total  log10-change:
                         energy   eigst   dens
iter:   1 10:23:23  -286.131474        c
iter:   2 10:24:38  -286.131287        c -3.46
iter:   3 10:25:54  -286.130906c       c -3.56
iter:   4 10:27:10  -286.130856c       c -3.70
iter:   5 10:28:24  -286.130851c       c -4.06c

Converged after 5 iterations.

Dipole moment: (-99.310929, -99.310950, -99.309001) |e|*Ang

Energy contributions relative to reference atoms: (reference = -425862.589512)

Kinetic:       +383.283995
Potential:     -333.530955
External:        +0.000000
XC:            -335.174474
Entropy (-ST):   -0.021617
Local:           -0.698609
SIC:             +0.000000
--------------------------
Free energy:   -286.141659
Extrapolated:  -286.130851

Showing only first 2 kpts
 Kpt  Band  Eigenvalues  Occupancy
  0   106      5.30734    1.90661
  0   107      5.30921    1.90493
  0   108      6.09295    0.01569
  0   109      6.09330    0.01564

  1   106      5.06713    1.99117
  1   107      5.06942    1.99097
  1   108      6.34830    0.00123
  1   109      6.34945    0.00122


Fermi level: 5.60897

Gap: 0.649 eV
Transition (v -> c):
  (s=0, k=0, n=107, [0.00, 0.00, 0.00]) -> (s=0, k=12, n=108, [0.33, 0.33, 0.00])
Direct/indirect transitions are different
Direct gap: 0.784 eV
Transition at: (s=0, k=0, n=107, [0.00, 0.00, 0.00])

Forces in eV/Ang:
  0 Si   -0.00136   -0.00137    0.00086
  1 Si    0.00120    0.00117    0.00252
  2 Si    0.00333    0.00333    0.00118
  3 Si   -0.00116   -0.00112   -0.00128
  4 Si   -0.00158   -0.00150   -0.00061
  5 Si   -0.00049   -0.00045   -0.00045
  6 Si    0.00037    0.00192    0.00259
  7 Si   -0.00055    0.00055   -0.00057
  8 Si   -0.00092    0.00033    0.00051
  9 Si   -0.02547    0.02482    0.03527
 10 Si   -0.00177    0.00091    0.00367
 11 Si   -0.00215    0.00200   -0.00025
 12 Si   -0.00120    0.00039   -0.00012
 13 Si   -0.00185    0.00081   -0.00187
 14 Si    0.00143    0.00031   -0.00551
 15 Si   -0.00158    0.00057    0.00118
 16 Si   -0.00125    0.00118    0.00295
 17 Si   -0.00009    0.00128    0.00251
 18 Si    0.00195    0.00033    0.00256
 19 Si    0.00066   -0.00050   -0.00056
 20 Si    0.00036   -0.00085    0.00055
 21 Si    0.02484   -0.02549    0.03540
 22 Si    0.00084   -0.00179    0.00372
 23 Si    0.00195   -0.00225   -0.00024
[...]
  47 Si     9.502500   12.217500    9.502500    ( 0.0000,  0.0000,  0.0000)
  48 Si     5.430000    5.430000   10.860000    ( 0.0000,  0.0000,  0.0000)
  49 Si     6.787500    6.787500   12.217500    ( 0.0000,  0.0000,  0.0000)
  50 Si     8.145000    8.145000   10.860000    ( 0.0000,  0.0000,  0.0000)
  51 Si     9.502500    9.502500   12.217500    ( 0.0000,  0.0000,  0.0000)
  52 Si    10.860000   10.860000   10.860000    ( 0.0000,  0.0000,  0.0000)
  53 Si    12.217500   12.217500   12.217500    ( 0.0000,  0.0000,  0.0000)

Unit cell:
           periodic     x           y           z      points  spacing
  1. axis:    yes    0.000000    8.145000    8.145000    68     0.1383
  2. axis:    yes    8.145000    0.000000    8.145000    68     0.1383
  3. axis:    yes    8.145000    8.145000    0.000000    68     0.1383

  Lengths:  11.518769  11.518769  11.518769
  Angles:   60.000000  60.000000  60.000000

Effective grid spacing dv^(1/3) = 0.1509

     iter     time        total  log10-change:
                         energy   eigst   dens
iter:   1 11:21:40  -286.131173        c
iter:   2 11:22:52  -286.131075        c -3.60
iter:   3 11:24:04  -286.130878c       c -3.70
iter:   4 11:25:17  -286.130853c       c -3.87
iter:   5 11:26:28  -286.130850c       c -4.22c

Converged after 5 iterations.

Dipole moment: (-99.310911, -99.310772, -99.311592) |e|*Ang

Energy contributions relative to reference atoms: (reference = -425862.589512)

Kinetic:       +383.284007
Potential:     -333.530910
External:        +0.000000
XC:            -335.174479
Entropy (-ST):   -0.021617
Local:           -0.698660
SIC:             +0.000000
--------------------------
Free energy:   -286.141659
Extrapolated:  -286.130850

Showing only first 2 kpts
 Kpt  Band  Eigenvalues  Occupancy
  0   106      5.30734    1.90661
  0   107      5.30922    1.90492
  0   108      6.09296    0.01569
  0   109      6.09330    0.01564

  1   106      5.06713    1.99117
  1   107      5.06943    1.99097
  1   108      6.34831    0.00123
  1   109      6.34945    0.00122


Fermi level: 5.60897

Gap: 0.649 eV
Transition (v -> c):
  (s=0, k=0, n=107, [0.00, 0.00, 0.00]) -> (s=0, k=12, n=108, [0.33, 0.33, 0.00])
Direct/indirect transitions are different
Direct gap: 0.784 eV
Transition at: (s=0, k=0, n=107, [0.00, 0.00, 0.00])

Forces in eV/Ang:
  0 Si    0.00053   -0.00030    0.00001
  1 Si    0.00211    0.00181    0.00084
  2 Si    0.00230    0.00238   -0.00263
  3 Si   -0.00064   -0.00094   -0.00040
  4 Si   -0.00163   -0.00246   -0.00006
  5 Si   -0.00128   -0.00209    0.00155
  6 Si    0.00239    0.00090    0.00207
  7 Si    0.00036   -0.00043   -0.00090
  8 Si    0.00152   -0.00124   -0.00147
  9 Si   -0.00308   -0.00208   -0.00176
 10 Si   -0.00136   -0.00101    0.00224
 11 Si    0.00045    0.00249   -0.00207
 12 Si   -0.00158   -0.00042   -0.00209
 13 Si   -0.00126    0.00197   -0.00239
 14 Si   -0.00032    0.00280   -0.00079
 15 Si   -0.00092   -0.00101    0.00711
 16 Si   -0.00084    0.00127    0.00253
 17 Si   -0.00044    0.00074    0.00045
 18 Si    0.00043    0.00290    0.00250
 19 Si   -0.00053    0.00046   -0.00051
 20 Si   -0.00175    0.00199   -0.00104
 21 Si   -0.00177   -0.00297   -0.00169
 22 Si   -0.00147   -0.00089    0.00299
 23 Si    0.00238    0.00014   -0.00199
 24 Si   -0.00167   -0.00073   -0.00156
 25 Si    0.00131    0.00108    0.00328
 26 Si   -0.02409   -0.02422   -0.03409
 27 Si   -0.00092    0.00258    0.14361
 28 Si    0.02532    0.02519   -0.03454
 29 Si    0.00032    0.00009    0.00402
 30 Si   -0.00115    0.00274    0.00003
 31 Si    0.00078    0.00212   -0.00396
 32 Si   -0.02442    0.02506   -0.03472
 33 Si   -0.00103   -0.00063   -0.00094
 34 Si   -0.00071   -0.00008    0.00117
 35 Si   -0.00195   -0.00101   -0.00186
 36 Si    0.00006   -0.00206   -0.00174
 37 Si    0.00123   -0.00186   -0.00218
 38 Si    0.00229   -0.00011   -0.00164
 39 Si   -0.00129   -0.00064    0.00548
 40 Si    0.00106   -0.00033    0.00168
 41 Si    0.00133    0.00029    0.00066
 42 Si    0.00147   -0.00154   -0.00022
 43 Si    0.00175   -0.00073   -0.00336
 44 Si    0.02567   -0.02503   -0.03520
 45 Si    0.00088   -0.00067   -0.00035
 46 Si    0.00030    0.00055    0.00092
 47 Si   -0.00141   -0.00156   -0.00294
 48 Si    0.00138    0.00074   -0.00008
 49 Si    0.00135    0.00096   -0.00014
 50 Si    0.00134    0.00071   -0.00001
 51 Si   -0.00229   -0.00298   -0.00152
 52 Si   -0.00120   -0.00203   -0.00174
 53 Si    0.00138    0.00069   -0.00014

System changes: positions 

Initializing position-dependent things.

Density initialized from wave functions
                                                      
                                                      
                                                      
                                                      
                                             Si       
                                    Si                
                                         Si           
                            Si        Si              
                                Si                    
                              Si           Si         
                     Si Si     Si SSi                 
                          Si           Si             
                       Si Si        Si                
                 Si        Si  Si                     
               Si           Si           Si           
                   SSiSi      SiSSi                   
           Si           Si           Si               
                     Si  Si        Si                 
                Si        Si Si                       
             Si           Si                          
                 SSi Si     Si Si                     
         Si           Si                              
                    Si                                
              Si        Si                            
           Si                                         
                Si                                    
       Si                                             
                                                      
                                                      
                                                      
                                                      

Positions:
   0 Si     0.000000    0.000000    0.000000    ( 0.0000,  0.0000,  0.0000)
   1 Si     1.357500    1.357500    1.357500    ( 0.0000,  0.0000,  0.0000)
   2 Si     2.715000    2.715000    0.000000    ( 0.0000,  0.0000,  0.0000)
   3 Si     4.072500    4.072500    1.357500    ( 0.0000,  0.0000,  0.0000)
   4 Si     5.430000    5.430000    0.000000    ( 0.0000,  0.0000,  0.0000)
   5 Si     6.787500    6.787500    1.357500    ( 0.0000,  0.0000,  0.0000)
   6 Si     2.715000    0.000000    2.715000    ( 0.0000,  0.0000,  0.0000)
   7 Si     4.072500    1.357500    4.072500    ( 0.0000,  0.0000,  0.0000)
   8 Si     5.430000    2.715000    2.715000    ( 0.0000,  0.0000,  0.0000)
   9 Si     6.787500    4.072500    4.072500    ( 0.0000,  0.0000,  0.0000)
  10 Si     8.145000    5.430000    2.715000    ( 0.0000,  0.0000,  0.0000)
  11 Si     9.502500    6.787500    4.072500    ( 0.0000,  0.0000,  0.0000)
  12 Si     5.430000    0.000000    5.430000    ( 0.0000,  0.0000,  0.0000)
  13 Si     6.787500    1.357500    6.787500    ( 0.0000,  0.0000,  0.0000)
  14 Si     8.145000    2.715000    5.430000    ( 0.0000,  0.0000,  0.0000)
  15 Si     9.502500    4.072500    6.787500    ( 0.0000,  0.0000,  0.0000)
  16 Si    10.860000    5.430000    5.430000    ( 0.0000,  0.0000,  0.0000)
  17 Si    12.217500    6.787500    6.787500    ( 0.0000,  0.0000,  0.0000)
  18 Si     0.000000    2.715000    2.715000    ( 0.0000,  0.0000,  0.0000)
  19 Si     1.357500    4.072500    4.072500    ( 0.0000,  0.0000,  0.0000)
  20 Si     2.715000    5.430000    2.715000    ( 0.0000,  0.0000,  0.0000)
  21 Si     4.072500    6.787500    4.072500    ( 0.0000,  0.0000,  0.0000)
  22 Si     5.430000    8.145000    2.715000    ( 0.0000,  0.0000,  0.0000)
  23 Si     6.787500    9.502500    4.072500    ( 0.0000,  0.0000,  0.0000)
  24 Si     2.715000    2.715000    5.430000    ( 0.0000,  0.0000,  0.0000)
  25 Si     4.072500    4.072500    6.787500    ( 0.0000,  0.0000,  0.0000)
  26 Si     5.430000    5.430000    5.430000    ( 0.0000,  0.0000,  0.0000)
  27 Si     6.787500    6.787500    6.797500    ( 0.0000,  0.0000,  0.0000)
  28 Si     8.145000    8.145000    5.430000    ( 0.0000,  0.0000,  0.0000)
  29 Si     9.502500    9.502500    6.787500    ( 0.0000,  0.0000,  0.0000)
  30 Si     5.430000    2.715000    8.145000    ( 0.0000,  0.0000,  0.0000)
  31 Si     6.787500    4.072500    9.502500    ( 0.0000,  0.0000,  0.0000)
  32 Si     8.145000    5.430000    8.145000    ( 0.0000,  0.0000,  0.0000)
  33 Si     9.502500    6.787500    9.502500    ( 0.0000,  0.0000,  0.0000)
  34 Si    10.860000    8.145000    8.145000    ( 0.0000,  0.0000,  0.0000)
  35 Si    12.217500    9.502500    9.502500    ( 0.0000,  0.0000,  0.0000)
  36 Si     0.000000    5.430000    5.430000    ( 0.0000,  0.0000,  0.0000)
  37 Si     1.357500    6.787500    6.787500    ( 0.0000,  0.0000,  0.0000)
  38 Si     2.715000    8.145000    5.430000    ( 0.0000,  0.0000,  0.0000)
  39 Si     4.072500    9.502500    6.787500    ( 0.0000,  0.0000,  0.0000)
  40 Si     5.430000   10.860000    5.430000    ( 0.0000,  0.0000,  0.0000)
  41 Si     6.787500   12.217500    6.787500    ( 0.0000,  0.0000,  0.0000)
  42 Si     2.715000    5.430000    8.145000    ( 0.0000,  0.0000,  0.0000)
  43 Si     4.072500    6.787500    9.502500    ( 0.0000,  0.0000,  0.0000)
  44 Si     5.430000    8.145000    8.145000    ( 0.0000,  0.0000,  0.0000)
  45 Si     6.787500    9.502500    9.502500    ( 0.0000,  0.0000,  0.0000)
  46 Si     8.145000   10.860000    8.145000    ( 0.0000,  0.0000,  0.0000)
  47 Si     9.502500   12.217500    9.502500    ( 0.0000,  0.0000,  0.0000)
  48 Si     5.430000    5.430000   10.860000    ( 0.0000,  0.0000,  0.0000)
  49 Si     6.787500    6.787500   12.217500    ( 0.0000,  0.0000,  0.0000)
  50 Si     8.145000    8.145000   10.860000    ( 0.0000,  0.0000,  0.0000)
  51 Si     9.502500    9.502500   12.217500    ( 0.0000,  0.0000,  0.0000)
  52 Si    10.860000   10.860000   10.860000    ( 0.0000,  0.0000,  0.0000)
  53 Si    12.217500   12.217500   12.217500    ( 0.0000,  0.0000,  0.0000)

Unit cell:
           periodic     x           y           z      points  spacing
  1. axis:    yes    0.000000    8.145000    8.145000    68     0.1383
  2. axis:    yes    8.145000    0.000000    8.145000    68     0.1383
  3. axis:    yes    8.145000    8.145000    0.000000    68     0.1383

  Lengths:  11.518769  11.518769  11.518769
  Angles:   60.000000  60.000000  60.000000

Effective grid spacing dv^(1/3) = 0.1509

     iter     time        total  log10-change:
                         energy   eigst   dens
iter:   1 11:33:21  -286.131447        c
iter:   2 11:34:33  -286.131260        c -3.46
iter:   3 11:35:45  -286.130879c       c -3.56
iter:   4 11:36:57  -286.130829c       c -3.70
iter:   5 11:38:09  -286.130824c       c -4.06c

Converged after 5 iterations.

Dipole moment: (-99.310907, -99.310936, -99.310465) |e|*Ang

Energy contributions relative to reference atoms: (reference = -425862.589512)

Kinetic:       +383.283502
Potential:     -333.530460
External:        +0.000000
XC:            -335.174428
Entropy (-ST):   -0.021617
Local:           -0.698630
SIC:             +0.000000
--------------------------
Free energy:   -286.141633
Extrapolated:  -286.130824

Showing only first 2 kpts
 Kpt  Band  Eigenvalues  Occupancy
  0   106      5.30733    1.90661
  0   107      5.30915    1.90498
  0   108      6.09297    0.01569
  0   109      6.09331    0.01564

  1   106      5.06624    1.99125
  1   107      5.06837    1.99106
  1   108      6.34782    0.00124
  1   109      6.34926    0.00122


Fermi level: 5.60897

Gap: 0.649 eV
Transition (v -> c):
  (s=0, k=0, n=107, [0.00, 0.00, 0.00]) -> (s=0, k=12, n=108, [0.33, 0.33, 0.00])
Direct/indirect transitions are different
Direct gap: 0.784 eV
Transition at: (s=0, k=0, n=107, [0.00, 0.00, 0.00])

Forces in eV/Ang:
  0 Si   -0.00019   -0.00016    0.00108
  1 Si    0.00036    0.00030    0.00183
  2 Si    0.00189    0.00183    0.00307
  3 Si    0.00073    0.00067    0.00096
  4 Si   -0.00128   -0.00124    0.00141
  5 Si   -0.00148   -0.00141    0.00017
  6 Si    0.00099    0.00043    0.00113
  7 Si   -0.00101    0.00117    0.00045
  8 Si    0.00152   -0.00040   -0.00200
  9 Si    0.00180    0.00143    0.00161
 10 Si    0.00088   -0.00256    0.00021
 11 Si   -0.00346   -0.00080    0.00194
 12 Si   -0.00194    0.00083   -0.00066
 13 Si   -0.00187    0.00117   -0.00003
 14 Si    0.00027    0.00205   -0.00201
 15 Si   -0.00329    0.00159   -0.00240
 16 Si   -0.00150    0.00113    0.00106
 17 Si   -0.00047    0.00203    0.00304
 18 Si    0.00043    0.00096    0.00116
 19 Si    0.00120   -0.00104    0.00048
 20 Si   -0.00037    0.00153   -0.00197
 21 Si    0.00148    0.00184    0.00167
 22 Si   -0.00258    0.00089    0.00019
 23 Si   -0.00084   -0.00350    0.00200
 24 Si   -0.00127   -0.00127    0.00414
 25 Si   -0.00171   -0.00169   -0.00459
 26 Si    0.02631    0.02644    0.03689
 27 Si   -0.00175   -0.00155   -0.14870
 28 Si   -0.02483   -0.02470    0.03620
 29 Si    0.00270    0.00272   -0.00549
 30 Si   -0.00121    0.00146   -0.00053
 31 Si    0.00401   -0.00155    0.00006
 32 Si    0.02578   -0.02486    0.03603
 33 Si    0.00289   -0.00390    0.00310
 34 Si   -0.00006   -0.00022   -0.00028
 35 Si    0.00107   -0.00337   -0.00114
 36 Si    0.00083   -0.00194   -0.00070
 37 Si    0.00125   -0.00179   -0.00003
 38 Si    0.00214    0.00027   -0.00197
 39 Si    0.00168   -0.00338   -0.00238
 40 Si    0.00112   -0.00159    0.00110
 41 Si    0.00196   -0.00055    0.00304
 42 Si    0.00157   -0.00116   -0.00054
 43 Si   -0.00152    0.00408    0.00001
 44 Si   -0.02484    0.02577    0.03590
 45 Si   -0.00397    0.00286    0.00305
 46 Si   -0.00027   -0.00017   -0.00029
 47 Si   -0.00333    0.00104   -0.00111
 48 Si    0.00248    0.00253   -0.00286
 49 Si    0.00158    0.00165   -0.00157
 50 Si   -0.00088   -0.00084   -0.00200
 51 Si   -0.00036   -0.00037    0.00030
 52 Si   -0.00121   -0.00124    0.00011
 53 Si   -0.00167   -0.00168    0.00055

Writing to ./data/si_0.14_groundstate.gpw (mode='all')

Timing:                                       incl.     excl.
--------------------------------------------------------------------
Basic WFS set positions:                      0.101     0.005   0.0% |
 Redistribute:                                0.095     0.095   0.0% |
Basis functions set positions:                1.162     1.162   0.0% |
Forces:                                    4303.315     5.654   0.0% |
 LCAO forces:                              4297.661     1.069   0.0% |
  Atomic Hamiltonian force:                  44.447    44.447   0.4% |
  Initial:                                    1.181     0.000   0.0% |
   Get density matrix:                        1.181     1.181   0.0% |
  Paw correction:                            38.728    38.728   0.3% |
  Potential:                               4191.957  4191.957  35.8% |-------------|
  TCI derivative:                            20.279    20.279   0.2% |
  Wait for sum:                               0.000     0.000   0.0% |
LCAO WFS Initialize:                        749.757     0.174   0.0% |
 Density initialized from wave functions:   739.837     0.717   0.0% |
  Calculate density matrix:                   0.387     0.387   0.0% |
  Construct density:                        738.733   738.733   6.3% |--|
  Symmetrize density:                         0.000     0.000   0.0% |
 Hamiltonian:                                 9.746     0.000   0.0% |
  Atomic:                                     4.646     0.013   0.0% |
   XC Correction:                             4.633     4.633   0.0% |
  Calculate atomic Hamiltonians:              0.424     0.424   0.0% |
  Communicate:                                0.000     0.000   0.0% |
  Hartree integrate/restrict:                 0.098     0.098   0.0% |
  Initialize Hamiltonian:                     0.000     0.000   0.0% |
  Poisson:                                    1.746     0.102   0.0% |
   Communicate from 1D:                       0.211     0.211   0.0% |
   Communicate from 2D:                       0.186     0.186   0.0% |
   Communicate to 1D:                         0.138     0.138   0.0% |
   Communicate to 2D:                         0.244     0.244   0.0% |
   FFT 1D:                                    0.241     0.241   0.0% |
   FFT 2D:                                    0.626     0.626   0.0% |
  XC 3D grid:                                 2.789     2.789   0.0% |
  vbar:                                       0.042     0.042   0.0% |
P tci:                                       38.266    38.266   0.3% |
Redistribute:                                 0.001     0.001   0.0% |
SCF-cycle:                                 6597.046     0.319   0.0% |
 Density:                                  4960.329     0.000   0.0% |
  Atomic density matrices:                    0.491     0.491   0.0% |
  Mix:                                        2.535     2.535   0.0% |
  Multipole moments:                          0.012     0.012   0.0% |
  Normalize:                                  0.005     0.005   0.0% |
  Pseudo density:                          4957.286     0.029   0.0% |
   Calculate density matrix:                  1.742     1.742   0.0% |
   Construct density:                      4955.515  4955.515  42.3% |----------------|
   Symmetrize density:                        0.001     0.001   0.0% |
 Hamiltonian:                                41.174     0.002   0.0% |
  Atomic:                                    20.037     0.058   0.0% |
   XC Correction:                            19.979    19.979   0.2% |
  Calculate atomic Hamiltonians:              1.820     1.820   0.0% |
  Communicate:                                0.000     0.000   0.0% |
  Hartree integrate/restrict:                 0.413     0.413   0.0% |
  Poisson:                                    7.044     0.325   0.0% |
   Communicate from 1D:                       0.788     0.788   0.0% |
   Communicate from 2D:                       0.782     0.782   0.0% |
   Communicate to 1D:                         0.592     0.592   0.0% |
   Communicate to 2D:                         0.843     0.843   0.0% |
   FFT 1D:                                    1.019     1.019   0.0% |
   FFT 2D:                                    2.694     2.694   0.0% |
  XC 3D grid:                                11.700    11.700   0.1% |
  vbar:                                       0.159     0.159   0.0% |
 LCAO eigensolver:                         1595.224     0.368   0.0% |
  Calculate projections:                      9.583     9.583   0.1% |
  DenseAtomicCorrection:                     43.112    43.112   0.4% |
  Distribute overlap matrix:                  0.555     0.555   0.0% |
  Orbital Layouts:                          140.818   140.818   1.2% |
  Potential matrix:                        1346.614  1346.614  11.5% |----|
  Sum over cells:                            54.173    54.173   0.5% |
ST tci:                                       5.080     5.080   0.0% |
Set symmetry:                                 0.001     0.001   0.0% |
TCI: Evaluate splines:                        0.024     0.024   0.0% |
mktci:                                        0.174     0.174   0.0% |
Other:                                       14.380    14.380   0.1% |
--------------------------------------------------------------------
Total:                                              11709.306 100.0%

Memory usage: 4.14 GiB
Date: Wed Nov 19 11:43:37 2025
