
  ___ ___ ___ _ _ _  
 |   |   |_  | | | | 
 | | | | | . | | | | 
 |__ |  _|___|_____|  25.1.0
 |___|_|             

User:   tshepo@Tshepos-MacBook-Pro.local
Date:   Wed Nov 19 20:52:46 2025
Arch:   arm64
Pid:    94315
CWD:    /Users/tshepo/Documents/Workspace/msc/repositories/symmetry/optimized/d-varied
Python: 3.13.0
gpaw:   /Users/tshepo/.asdf/installs/python/3.13.0/lib/python3.13/site-packages/gpaw
_gpaw:  /Users/tshepo/.asdf/installs/python/3.13.0/lib/python3.13/site-packages/
        _gpaw.cpython-313-darwin.so
ase:    /Users/tshepo/.asdf/installs/python/3.13.0/lib/python3.13/site-packages/ase (version 3.25.0)
numpy:  /Users/tshepo/.asdf/installs/python/3.13.0/lib/python3.13/site-packages/numpy (version 2.2.3)
scipy:  /Users/tshepo/.asdf/installs/python/3.13.0/lib/python3.13/site-packages/scipy (version 1.15.2)
libxc:  7.0.0
units:  Angstrom and eV
cores: 1
OpenMP: False
OMP_NUM_THREADS: 1

Input parameters:
  basis: dzp
  convergence: {density: 0.001}
  h: 0.2
  kpts: [3 3 3]
  mode: lcao
  symmetry: {point_group: False}
  xc: PBE

System changes: positions, numbers, cell, pbc, initial_charges, initial_magmoms 

Initialize ...

species:
  Si:
    name: Silicon
    id: ee77bee481871cc2cb65ac61239ccafa
    Z: 14.0
    valence: 4
    core: 10
    charge: 0.0
    file: /Users/tshepo/.gpaw/gpaw-setups-24.11.0/Si.PBE.gz
    compensation charges: {type: gauss,
                           rc: 0.33,
                           lmax: 2}
    cutoffs: {filter: 1.86,
              core: 2.06}
    projectors:
      #              energy  rcut
      - 3s(2.00)   -10.812   1.058
      - 3p(2.00)    -4.081   1.058
      -  s          16.399   1.058
      -  p          23.130   1.058
      -  d           0.000   1.058
  
    # LCAO basis set for Si:
    #   Name: dzp
    #   File: /Users/tshepo/.gpaw/gpaw-setups-24.11.0/Si.dzp.basis.gz
    #   Number of radial functions: 5
    #   Number of spherical harmonics: 13
    #     l=0, rc=6.8594 Bohr: 3s-sz confined orbital
    #     l=1, rc=9.0625 Bohr: 3p-sz confined orbital
    #     l=0, rc=3.8906 Bohr: 3s-dz split-valence wave
    #     l=1, rc=5.2344 Bohr: 3p-dz split-valence wave
    #     l=2, rc=9.0625 Bohr: d-type Gaussian polarization
    #   Number of RI-basis functions 0

Reference energy: -15772.688500  # eV

Spin-paired calculation

Convergence criteria:
 Maximum [total energy] change in last 3 cyles: 0.0005 eV / valence electron
 Maximum integral of absolute [dens]ity change: 0.001 electrons / valence electron
 Maximum integral of absolute [eigenst]ate change: 4e-08 eV^2 / valence electron
 Maximum number of scf [iter]ations: 333
 (Square brackets indicate name in SCF output, whereas a 'c' in
 the SCF output indicates the quantity has converged.)

Symmetries present (total): 1

  ( 1  0  0)
  ( 0  1  0)
  ( 0  0  1)

27 k-points: 3 x 3 x 3 Monkhorst-Pack grid
14 k-points in the irreducible part of the Brillouin zone
       k-points in crystal coordinates                weights
   0:     0.00000000    0.00000000    0.00000000          1/27
   1:     0.00000000    0.00000000    0.33333333          2/27
   2:     0.00000000    0.33333333   -0.33333333          2/27
   3:     0.00000000    0.33333333    0.00000000          2/27
   4:     0.00000000    0.33333333    0.33333333          2/27
   5:     0.33333333   -0.33333333   -0.33333333          2/27
   6:     0.33333333   -0.33333333    0.00000000          2/27
   7:     0.33333333   -0.33333333    0.33333333          2/27
   8:     0.33333333    0.00000000   -0.33333333          2/27
   9:     0.33333333    0.00000000    0.00000000          2/27
          ...
  13:     0.33333333    0.33333333    0.33333333          2/27

Wave functions: LCAO
  Diagonalizer: Serial LAPACK
  Atomic Correction: dense with blas
  Data-type: complex
 

Occupation numbers: Fermi-Dirac:
  width: 0.1000  # eV
 

Eigensolver
   LCAO using direct dense diagonalizer 

Densities:
  Coarse grid: 16*16*16 grid
  Fine grid: 32*32*32 grid
  Total Charge: 0.000000 

Density mixing:
  Method: separate
  Backend: pulay
  Linear mixing parameter: 0.05
  old densities: 5
  Damping of long wavelength oscillations: 50 

Hamiltonian:
  XC and Coulomb potentials evaluated on a 32*32*32 grid
  Using the PBE Exchange-Correlation functional
  Interpolation: tri-quintic (5. degree polynomial)
  Poisson solver: FastPoissonSolver using
    Stencil: 12*3+1=37 point O(h^6) finite-difference Laplacian
    FFT axes: [np.int64(0), np.int64(1), np.int64(2)]
    FST axes: []
 

XC parameters: PBE with 2 nearest neighbor stencil

Memory estimate:
  Process memory now: 99.69 MiB
  Calculator: 13.42 MiB
    Density: 5.65 MiB
      Arrays: 0.81 MiB
      Localized functions: 4.52 MiB
      Mixer: 0.31 MiB
    Hamiltonian: 0.87 MiB
      Arrays: 0.53 MiB
      XC: 0.00 MiB
      Poisson: 0.00 MiB
      vbar: 0.34 MiB
    Wavefunctions: 6.90 MiB
      C [qnM]: 0.04 MiB
      S, T [2 x qmm]: 0.29 MiB
      P [aqMi]: 0.01 MiB
      BasisFunctions: 6.56 MiB
      Eigensolver: 0.00 MiB

Total number of cores used: 1

Number of atoms: 2
Number of atomic orbitals: 26
Number of bands in calculation: 8
Number of valence electrons: 8
Bands to converge: occupied

... initialized

Initializing position-dependent things.

Density initialized from atomic densities
                    
                    
                    
                    
           Si       
                    
       Si           
                    
                    
                    
                    

Positions:
   0 Si     0.000000    0.000000    0.000000    ( 0.0000,  0.0000,  0.0000)
   1 Si     1.357500    1.357500    1.357500    ( 0.0000,  0.0000,  0.0000)

Unit cell:
           periodic     x           y           z      points  spacing
  1. axis:    yes    0.000000    2.715000    2.715000    16     0.1959
  2. axis:    yes    2.715000    0.000000    2.715000    16     0.1959
  3. axis:    yes    2.715000    2.715000    0.000000    16     0.1959

  Lengths:   3.839590   3.839590   3.839590
  Angles:   60.000000  60.000000  60.000000

Effective grid spacing dv^(1/3) = 0.2138

     iter     time        total  log10-change:
                         energy   eigst   dens
iter:   1 20:52:47    -9.988455        c
iter:   2 20:52:48    -9.984938        c -0.79
iter:   3 20:52:48    -9.970192        c -0.81
iter:   4 20:52:49    -9.968178        c -1.83
iter:   5 20:52:50    -9.968210c       c -2.13
iter:   6 20:52:51    -9.968216c       c -3.56c

Converged after 6 iterations.

Dipole moment: (-3.884101, -3.884101, -3.884101) |e|*Ang

Energy contributions relative to reference atoms: (reference = -15772.688500)

Kinetic:        +15.738749
Potential:      -12.874805
External:        +0.000000
XC:             -12.811151
Entropy (-ST):   -0.006815
Local:           -0.017601
SIC:             +0.000000
--------------------------
Free energy:     -9.971623
Extrapolated:    -9.968216

Showing only first 2 kpts
 Kpt  Band  Eigenvalues  Occupancy
  0     2      5.40355    1.93565
  0     3      5.40355    1.93565
  0     4      8.01352    0.00000
  0     5      8.01365    0.00000

  1     2      4.38705    2.00000
  1     3      4.38756    2.00000
  1     4      7.21683    0.00000
  1     5      9.03598    0.00000


Fermi level: 5.74394

Gap: 0.752 eV
Transition (v -> c):
  (s=0, k=0, n=3, [0.00, 0.00, 0.00]) -> (s=0, k=10, n=4, [0.33, 0.00, 0.33])
Direct/indirect transitions are different
Direct gap: 2.610 eV
Transition at: (s=0, k=0, n=3, [0.00, 0.00, 0.00])
System changes: cell, positions, numbers 

Initialize ...

species:
  Si:
    name: Silicon
    id: ee77bee481871cc2cb65ac61239ccafa
    Z: 14.0
    valence: 4
    core: 10
    charge: 0.0
    file: /Users/tshepo/.gpaw/gpaw-setups-24.11.0/Si.PBE.gz
    compensation charges: {type: gauss,
                           rc: 0.33,
                           lmax: 2}
    cutoffs: {filter: 1.86,
              core: 2.06}
    projectors:
      #              energy  rcut
      - 3s(2.00)   -10.812   1.058
      - 3p(2.00)    -4.081   1.058
      -  s          16.399   1.058
      -  p          23.130   1.058
      -  d           0.000   1.058
  
    # LCAO basis set for Si:
    #   Name: dzp
    #   File: /Users/tshepo/.gpaw/gpaw-setups-24.11.0/Si.dzp.basis.gz
    #   Number of radial functions: 5
    #   Number of spherical harmonics: 13
    #     l=0, rc=6.8594 Bohr: 3s-sz confined orbital
    #     l=1, rc=9.0625 Bohr: 3p-sz confined orbital
    #     l=0, rc=3.8906 Bohr: 3s-dz split-valence wave
    #     l=1, rc=5.2344 Bohr: 3p-dz split-valence wave
    #     l=2, rc=9.0625 Bohr: d-type Gaussian polarization
    #   Number of RI-basis functions 0

Reference energy: -425862.589512  # eV

Spin-paired calculation

Convergence criteria:
 Maximum [total energy] change in last 3 cyles: 0.0005 eV / valence electron
 Maximum integral of absolute [dens]ity change: 0.001 electrons / valence electron
 Maximum integral of absolute [eigenst]ate change: 4e-08 eV^2 / valence electron
 Maximum number of scf [iter]ations: 333
 (Square brackets indicate name in SCF output, whereas a 'c' in
 the SCF output indicates the quantity has converged.)

Symmetries present (total): 1

  ( 1  0  0)
  ( 0  1  0)
  ( 0  0  1)

27 k-points: 3 x 3 x 3 Monkhorst-Pack grid
14 k-points in the irreducible part of the Brillouin zone
       k-points in crystal coordinates                weights
   0:     0.00000000    0.00000000    0.00000000          1/27
   1:     0.00000000    0.00000000    0.33333333          2/27
   2:     0.00000000    0.33333333   -0.33333333          2/27
   3:     0.00000000    0.33333333    0.00000000          2/27
   4:     0.00000000    0.33333333    0.33333333          2/27
   5:     0.33333333   -0.33333333   -0.33333333          2/27
   6:     0.33333333   -0.33333333    0.00000000          2/27
   7:     0.33333333   -0.33333333    0.33333333          2/27
   8:     0.33333333    0.00000000   -0.33333333          2/27
   9:     0.33333333    0.00000000    0.00000000          2/27
          ...
  13:     0.33333333    0.33333333    0.33333333          2/27

Wave functions: LCAO
  Diagonalizer: Serial LAPACK
  Atomic Correction: dense with blas
  Data-type: complex
 

Occupation numbers: Fermi-Dirac:
  width: 0.1000  # eV
 

Eigensolver
   LCAO using direct dense diagonalizer 

Densities:
  Coarse grid: 48*48*48 grid
  Fine grid: 96*96*96 grid
  Total Charge: 0.000000 

Density mixing:
  Method: separate
  Backend: pulay
  Linear mixing parameter: 0.05
  old densities: 5
  Damping of long wavelength oscillations: 50 

Hamiltonian:
  XC and Coulomb potentials evaluated on a 96*96*96 grid
  Using the PBE Exchange-Correlation functional
  Interpolation: tri-quintic (5. degree polynomial)
  Poisson solver: FastPoissonSolver using
    Stencil: 12*3+1=37 point O(h^6) finite-difference Laplacian
    FFT axes: [np.int64(0), np.int64(1), np.int64(2)]
    FST axes: []
 

XC parameters: PBE with 2 nearest neighbor stencil

Memory estimate:
  Process memory now: 267.36 MiB
  Calculator: 590.21 MiB
    Density: 152.50 MiB
      Arrays: 21.94 MiB
      Localized functions: 122.12 MiB
      Mixer: 8.44 MiB
    Hamiltonian: 23.42 MiB
      Arrays: 14.34 MiB
      XC: 0.00 MiB
      Poisson: 0.00 MiB
      vbar: 9.08 MiB
    Wavefunctions: 414.29 MiB
      C [qnM]: 20.10 MiB
      S, T [2 x qmm]: 210.55 MiB
      P [aqMi]: 6.58 MiB
      BasisFunctions: 177.07 MiB
      Eigensolver: 0.00 MiB

Total number of cores used: 1

Number of atoms: 54
Number of atomic orbitals: 702
Number of bands in calculation: 134
Number of valence electrons: 216
Bands to converge: occupied

... initialized

Initializing position-dependent things.

Density initialized from atomic densities
                                                      
                                                      
                                                      
                                                      
                                             Si       
                                    Si                
                                         Si           
                            Si        Si              
                                Si                    
                              Si           Si         
                     Si Si     Si SSi                 
                          Si           Si             
                       Si Si        Si                
                 Si        Si  Si                     
               Si           Si           Si           
                   SSiSi      SiSSi                   
           Si           Si           Si               
                     Si  Si        Si                 
                Si        Si Si                       
             Si           Si                          
                 SSi Si     Si Si                     
         Si           Si                              
                    Si                                
              Si        Si                            
           Si                                         
                Si                                    
       Si                                             
                                                      
                                                      
                                                      
                                                      

Positions:
   0 Si     0.000000    0.000000    0.000000    ( 0.0000,  0.0000,  0.0000)
   1 Si     1.357500    1.357500    1.357500    ( 0.0000,  0.0000,  0.0000)
   2 Si     2.715000    2.715000    0.000000    ( 0.0000,  0.0000,  0.0000)
   3 Si     4.072500    4.072500    1.357500    ( 0.0000,  0.0000,  0.0000)
   4 Si     5.430000    5.430000    0.000000    ( 0.0000,  0.0000,  0.0000)
   5 Si     6.787500    6.787500    1.357500    ( 0.0000,  0.0000,  0.0000)
   6 Si     2.715000    0.000000    2.715000    ( 0.0000,  0.0000,  0.0000)
   7 Si     4.072500    1.357500    4.072500    ( 0.0000,  0.0000,  0.0000)
   8 Si     5.430000    2.715000    2.715000    ( 0.0000,  0.0000,  0.0000)
   9 Si     6.787500    4.072500    4.072500    ( 0.0000,  0.0000,  0.0000)
  10 Si     8.145000    5.430000    2.715000    ( 0.0000,  0.0000,  0.0000)
  11 Si     9.502500    6.787500    4.072500    ( 0.0000,  0.0000,  0.0000)
  12 Si     5.430000    0.000000    5.430000    ( 0.0000,  0.0000,  0.0000)
  13 Si     6.787500    1.357500    6.787500    ( 0.0000,  0.0000,  0.0000)
  14 Si     8.145000    2.715000    5.430000    ( 0.0000,  0.0000,  0.0000)
  15 Si     9.502500    4.072500    6.787500    ( 0.0000,  0.0000,  0.0000)
  16 Si    10.860000    5.430000    5.430000    ( 0.0000,  0.0000,  0.0000)
  17 Si    12.217500    6.787500    6.787500    ( 0.0000,  0.0000,  0.0000)
  18 Si     0.000000    2.715000    2.715000    ( 0.0000,  0.0000,  0.0000)
  19 Si     1.357500    4.072500    4.072500    ( 0.0000,  0.0000,  0.0000)
  20 Si     2.715000    5.430000    2.715000    ( 0.0000,  0.0000,  0.0000)
  21 Si     4.072500    6.787500    4.072500    ( 0.0000,  0.0000,  0.0000)
  22 Si     5.430000    8.145000    2.715000    ( 0.0000,  0.0000,  0.0000)
  23 Si     6.787500    9.502500    4.072500    ( 0.0000,  0.0000,  0.0000)
  24 Si     2.715000    2.715000    5.430000    ( 0.0000,  0.0000,  0.0000)
  25 Si     4.072500    4.072500    6.787500    ( 0.0000,  0.0000,  0.0000)
  26 Si     5.430000    5.430000    5.430000    ( 0.0000,  0.0000,  0.0000)
  27 Si     6.787500    6.787500    6.787500    ( 0.0000,  0.0000,  0.0000)
  28 Si     8.145000    8.145000    5.430000    ( 0.0000,  0.0000,  0.0000)
  29 Si     9.502500    9.502500    6.787500    ( 0.0000,  0.0000,  0.0000)
  30 Si     5.430000    2.715000    8.145000    ( 0.0000,  0.0000,  0.0000)
  31 Si     6.787500    4.072500    9.502500    ( 0.0000,  0.0000,  0.0000)
  32 Si     8.145000    5.430000    8.145000    ( 0.0000,  0.0000,  0.0000)
  33 Si     9.502500    6.787500    9.502500    ( 0.0000,  0.0000,  0.0000)
  34 Si    10.860000    8.145000    8.145000    ( 0.0000,  0.0000,  0.0000)
  35 Si    12.217500    9.502500    9.502500    ( 0.0000,  0.0000,  0.0000)
  36 Si     0.000000    5.430000    5.430000    ( 0.0000,  0.0000,  0.0000)
  37 Si     1.357500    6.787500    6.787500    ( 0.0000,  0.0000,  0.0000)
  38 Si     2.715000    8.145000    5.430000    ( 0.0000,  0.0000,  0.0000)
  39 Si     4.072500    9.502500    6.787500    ( 0.0000,  0.0000,  0.0000)
  40 Si     5.430000   10.860000    5.430000    ( 0.0000,  0.0000,  0.0000)
  41 Si     6.787500   12.217500    6.787500    ( 0.0000,  0.0000,  0.0000)
  42 Si     2.715000    5.430000    8.145000    ( 0.0000,  0.0000,  0.0000)
  43 Si     4.072500    6.787500    9.502500    ( 0.0000,  0.0000,  0.0000)
  44 Si     5.430000    8.145000    8.145000    ( 0.0000,  0.0000,  0.0000)
  45 Si     6.787500    9.502500    9.502500    ( 0.0000,  0.0000,  0.0000)
  46 Si     8.145000   10.860000    8.145000    ( 0.0000,  0.0000,  0.0000)
  47 Si     9.502500   12.217500    9.502500    ( 0.0000,  0.0000,  0.0000)
  48 Si     5.430000    5.430000   10.860000    ( 0.0000,  0.0000,  0.0000)
  49 Si     6.787500    6.787500   12.217500    ( 0.0000,  0.0000,  0.0000)
  50 Si     8.145000    8.145000   10.860000    ( 0.0000,  0.0000,  0.0000)
  51 Si     9.502500    9.502500   12.217500    ( 0.0000,  0.0000,  0.0000)
  52 Si    10.860000   10.860000   10.860000    ( 0.0000,  0.0000,  0.0000)
  53 Si    12.217500   12.217500   12.217500    ( 0.0000,  0.0000,  0.0000)

Unit cell:
           periodic     x           y           z      points  spacing
  1. axis:    yes    0.000000    8.145000    8.145000    48     0.1959
  2. axis:    yes    8.145000    0.000000    8.145000    48     0.1959
  3. axis:    yes    8.145000    8.145000    0.000000    48     0.1959

  Lengths:  11.518769  11.518769  11.518769
  Angles:   60.000000  60.000000  60.000000

Effective grid spacing dv^(1/3) = 0.2138

     iter     time        total  log10-change:
                         energy   eigst   dens
iter:   1 20:53:03  -285.734171        c
iter:   2 20:53:32  -285.723530        c -0.84
iter:   3 20:54:03  -285.857359        c -0.86
iter:   4 20:54:33  -285.808988        c -1.90
iter:   5 20:55:04  -285.806463c       c -2.25
iter:   6 20:55:36  -285.806462c       c -3.65c

Converged after 6 iterations.

Dipole moment: (-107.177601, -107.177601, -107.177601) |e|*Ang

Energy contributions relative to reference atoms: (reference = -425862.589512)

Kinetic:       +382.665667
Potential:     -332.733228
External:        +0.000000
XC:            -335.067528
Entropy (-ST):   -0.021529
Local:           -0.660609
SIC:             +0.000000
--------------------------
Free energy:   -285.817227
Extrapolated:  -285.806462

Showing only first 2 kpts
 Kpt  Band  Eigenvalues  Occupancy
  0   106      5.30641    1.90686
  0   107      5.30641    1.90686
  0   108      6.09448    0.01536
  0   109      6.09448    0.01536

  1   106      5.06628    1.99119
  1   107      5.06692    1.99113
  1   108      6.34902    0.00121
  1   109      6.34937    0.00121


Fermi level: 5.60832

Gap: 0.652 eV
Transition (v -> c):
  (s=0, k=0, n=107, [0.00, 0.00, 0.00]) -> (s=0, k=10, n=108, [0.33, 0.00, 0.33])
Direct/indirect transitions are different
Direct gap: 0.788 eV
Transition at: (s=0, k=0, n=107, [0.00, 0.00, 0.00])

Forces in eV/Ang:
  0 Si    0.00102    0.00102    0.00102
  1 Si   -0.00102   -0.00102   -0.00102
  2 Si    0.00102    0.00102    0.00102
  3 Si   -0.00102   -0.00102   -0.00102
  4 Si    0.00102    0.00102    0.00102
  5 Si   -0.00102   -0.00102   -0.00102
  6 Si    0.00102    0.00102    0.00102
  7 Si   -0.00102   -0.00102   -0.00102
  8 Si    0.00102    0.00102    0.00102
  9 Si   -0.00102   -0.00102   -0.00102
 10 Si    0.00102    0.00102    0.00102
 11 Si   -0.00102   -0.00102   -0.00102
 12 Si    0.00102    0.00102    0.00102
 13 Si   -0.00102   -0.00102   -0.00102
 14 Si    0.00102    0.00102    0.00102
 15 Si   -0.00102   -0.00102   -0.00102
 16 Si    0.00102    0.00102    0.00102
 17 Si   -0.00102   -0.00102   -0.00102
 18 Si    0.00102    0.00102    0.00102
 19 Si   -0.00102   -0.00102   -0.00102
 20 Si    0.00102    0.00102    0.00102
 21 Si   -0.00102   -0.00102   -0.00102
 22 Si    0.00102    0.00102    0.00102
 23 Si   -0.00102   -0.00102   -0.00102
 24 Si    0.00102    0.00102    0.00102
 25 Si   -0.00102   -0.00102   -0.00102
 26 Si    0.00102    0.00102    0.00102
 27 Si   -0.00102   -0.00102   -0.00102
 28 Si    0.00102    0.00102    0.00102
 29 Si   -0.00102   -0.00102   -0.00102
 30 Si    0.00102    0.00102    0.00102
 31 Si   -0.00102   -0.00102   -0.00102
 32 Si    0.00102    0.00102    0.00102
 33 Si   -0.00102   -0.00102   -0.00102
 34 Si    0.00102    0.00102    0.00102
 35 Si   -0.00102   -0.00102   -0.00102
 36 Si    0.00102    0.00102    0.00102
 37 Si   -0.00102   -0.00102   -0.00102
 38 Si    0.00102    0.00102    0.00102
 39 Si   -0.00102   -0.00102   -0.00102
 40 Si    0.00102    0.00102    0.00102
 41 Si   -0.00102   -0.00102   -0.00102
 42 Si    0.00102    0.00102    0.00102
 43 Si   -0.00102   -0.00102   -0.00102
 44 Si    0.00102    0.00102    0.00102
 45 Si   -0.00102   -0.00102   -0.00102
 46 Si    0.00102    0.00102    0.00102
 47 Si   -0.00102   -0.00102   -0.00102
 48 Si    0.00102    0.00102    0.00102
 49 Si   -0.00102   -0.00102   -0.00102
 50 Si    0.00102    0.00102    0.00102
 51 Si   -0.00102   -0.00102   -0.00102
 52 Si    0.00102    0.00102    0.00102
 53 Si   -0.00102   -0.00102   -0.00102

System changes: positions 

Initializing position-dependent things.

Density initialized from wave functions
                                                      
                                                      
                                                      
                                                      
                                             Si       
                                    Si                
                                         Si           
                            Si        Si              
                                Si                    
                              Si           Si         
                     Si Si     Si SSi                 
                          Si           Si             
                       Si Si        Si                
                 Si        Si  Si                     
               Si           Si           Si           
                   SSiSi      SiSSi                   
           Si           Si           Si               
                     Si  Si        Si                 
                Si        Si Si                       
             Si           Si                          
                 SSi Si     Si Si                     
         Si           Si                              
                    Si                                
              Si        Si                            
           Si                                         
                Si                                    
       Si                                             
                                                      
                                                      
                                                      
                                                      

Positions:
   0 Si     0.000000    0.000000    0.000000    ( 0.0000,  0.0000,  0.0000)
   1 Si     1.357500    1.357500    1.357500    ( 0.0000,  0.0000,  0.0000)
   2 Si     2.715000    2.715000    0.000000    ( 0.0000,  0.0000,  0.0000)
   3 Si     4.072500    4.072500    1.357500    ( 0.0000,  0.0000,  0.0000)
   4 Si     5.430000    5.430000    0.000000    ( 0.0000,  0.0000,  0.0000)
   5 Si     6.787500    6.787500    1.357500    ( 0.0000,  0.0000,  0.0000)
   6 Si     2.715000    0.000000    2.715000    ( 0.0000,  0.0000,  0.0000)
   7 Si     4.072500    1.357500    4.072500    ( 0.0000,  0.0000,  0.0000)
   8 Si     5.430000    2.715000    2.715000    ( 0.0000,  0.0000,  0.0000)
   9 Si     6.787500    4.072500    4.072500    ( 0.0000,  0.0000,  0.0000)
  10 Si     8.145000    5.430000    2.715000    ( 0.0000,  0.0000,  0.0000)
  11 Si     9.502500    6.787500    4.072500    ( 0.0000,  0.0000,  0.0000)
  12 Si     5.430000    0.000000    5.430000    ( 0.0000,  0.0000,  0.0000)
  13 Si     6.787500    1.357500    6.787500    ( 0.0000,  0.0000,  0.0000)
  14 Si     8.145000    2.715000    5.430000    ( 0.0000,  0.0000,  0.0000)
  15 Si     9.502500    4.072500    6.787500    ( 0.0000,  0.0000,  0.0000)
  16 Si    10.860000    5.430000    5.430000    ( 0.0000,  0.0000,  0.0000)
  17 Si    12.217500    6.787500    6.787500    ( 0.0000,  0.0000,  0.0000)
  18 Si     0.000000    2.715000    2.715000    ( 0.0000,  0.0000,  0.0000)
  19 Si     1.357500    4.072500    4.072500    ( 0.0000,  0.0000,  0.0000)
  20 Si     2.715000    5.430000    2.715000    ( 0.0000,  0.0000,  0.0000)
  21 Si     4.072500    6.787500    4.072500    ( 0.0000,  0.0000,  0.0000)
  22 Si     5.430000    8.145000    2.715000    ( 0.0000,  0.0000,  0.0000)
  23 Si     6.787500    9.502500    4.072500    ( 0.0000,  0.0000,  0.0000)
  24 Si     2.715000    2.715000    5.430000    ( 0.0000,  0.0000,  0.0000)
  25 Si     4.072500    4.072500    6.787500    ( 0.0000,  0.0000,  0.0000)
  26 Si     5.420000    5.430000    5.430000    ( 0.0000,  0.0000,  0.0000)
  27 Si     6.787500    6.787500    6.787500    ( 0.0000,  0.0000,  0.0000)
  28 Si     8.145000    8.145000    5.430000    ( 0.0000,  0.0000,  0.0000)
  29 Si     9.502500    9.502500    6.787500    ( 0.0000,  0.0000,  0.0000)
  30 Si     5.430000    2.715000    8.145000    ( 0.0000,  0.0000,  0.0000)
  31 Si     6.787500    4.072500    9.502500    ( 0.0000,  0.0000,  0.0000)
  32 Si     8.145000    5.430000    8.145000    ( 0.0000,  0.0000,  0.0000)
  33 Si     9.502500    6.787500    9.502500    ( 0.0000,  0.0000,  0.0000)
  34 Si    10.860000    8.145000    8.145000    ( 0.0000,  0.0000,  0.0000)
  35 Si    12.217500    9.502500    9.502500    ( 0.0000,  0.0000,  0.0000)
  36 Si     0.000000    5.430000    5.430000    ( 0.0000,  0.0000,  0.0000)
  37 Si     1.357500    6.787500    6.787500    ( 0.0000,  0.0000,  0.0000)
  38 Si     2.715000    8.145000    5.430000    ( 0.0000,  0.0000,  0.0000)
  39 Si     4.072500    9.502500    6.787500    ( 0.0000,  0.0000,  0.0000)
  40 Si     5.430000   10.860000    5.430000    ( 0.0000,  0.0000,  0.0000)
  41 Si     6.787500   12.217500    6.787500    ( 0.0000,  0.0000,  0.0000)
  42 Si     2.715000    5.430000    8.145000    ( 0.0000,  0.0000,  0.0000)
  43 Si     4.072500    6.787500    9.502500    ( 0.0000,  0.0000,  0.0000)
  44 Si     5.430000    8.145000    8.145000    ( 0.0000,  0.0000,  0.0000)
  45 Si     6.787500    9.502500    9.502500    ( 0.0000,  0.0000,  0.0000)
  46 Si     8.145000   10.860000    8.145000    ( 0.0000,  0.0000,  0.0000)
  47 Si     9.502500   12.217500    9.502500    ( 0.0000,  0.0000,  0.0000)
  48 Si     5.430000    5.430000   10.860000    ( 0.0000,  0.0000,  0.0000)
  49 Si     6.787500    6.787500   12.217500    ( 0.0000,  0.0000,  0.0000)
  50 Si     8.145000    8.145000   10.860000    ( 0.0000,  0.0000,  0.0000)
  51 Si     9.502500    9.502500   12.217500    ( 0.0000,  0.0000,  0.0000)
  52 Si    10.860000   10.860000   10.860000    ( 0.0000,  0.0000,  0.0000)
  53 Si    12.217500   12.217500   12.217500    ( 0.0000,  0.0000,  0.0000)

Unit cell:
           periodic     x           y           z      points  spacing
  1. axis:    yes    0.000000    8.145000    8.145000    48     0.1959
  2. axis:    yes    8.145000    0.000000    8.145000    48     0.1959
  3. axis:    yes    8.145000    8.145000    0.000000    48     0.1959

  Lengths:  11.518769  11.518769  11.518769
  Angles:   60.000000  60.000000  60.000000

Effective grid spacing dv^(1/3) = 0.2138

     iter     time        total  log10-change:
                         energy   eigst   dens
iter:   1 20:58:35  -285.805938        c
Timing:                                       incl.     excl.
--------------------------------------------------------------------
Basic WFS set positions:                      0.007     0.001   0.0% |
 Redistribute:                                0.006     0.006   0.0% |
Basis functions set positions:                0.154     0.154   0.0% |
Forces:                                     143.042     0.171   0.0% |
 LCAO forces:                               142.871     0.096   0.0% |
  Atomic Hamiltonian force:                   3.654     3.654   1.0% |
  Initial:                                    0.114     0.000   0.0% |
   Get density matrix:                        0.114     0.114   0.0% |
  Paw correction:                             2.978     2.978   0.8% |
  Potential:                                134.415   134.415  35.9% |-------------|
  TCI derivative:                             1.614     1.614   0.4% |
  Wait for sum:                               0.000     0.000   0.0% |
LCAO WFS Initialize:                         26.016     0.133   0.0% |
 Density initialized from wave functions:    24.861     0.027   0.0% |
  Calculate density matrix:                   0.043     0.043   0.0% |
  Construct density:                         24.791    24.791   6.6% |--|
  Symmetrize density:                         0.000     0.000   0.0% |
 Hamiltonian:                                 1.022     0.000   0.0% |
  Atomic:                                     0.742     0.003   0.0% |
   XC Correction:                             0.739     0.739   0.2% |
  Calculate atomic Hamiltonians:              0.024     0.024   0.0% |
  Communicate:                                0.000     0.000   0.0% |
  Hartree integrate/restrict:                 0.006     0.006   0.0% |
  Initialize Hamiltonian:                     0.000     0.000   0.0% |
  Poisson:                                    0.093     0.005   0.0% |
   Communicate from 1D:                       0.011     0.011   0.0% |
   Communicate from 2D:                       0.011     0.011   0.0% |
   Communicate to 1D:                         0.008     0.008   0.0% |
   Communicate to 2D:                         0.012     0.012   0.0% |
   FFT 1D:                                    0.009     0.009   0.0% |
   FFT 2D:                                    0.036     0.036   0.0% |
  XC 3D grid:                                 0.154     0.154   0.0% |
  vbar:                                       0.003     0.003   0.0% |
P tci:                                        6.209     6.209   1.7% ||
Redistribute:                                 0.000     0.000   0.0% |
SCF-cycle:                                  195.122     0.031   0.0% |
 Density:                                   147.472     0.027   0.0% |
  Atomic density matrices:                    0.048     0.048   0.0% |
  Mix:                                        0.096     0.096   0.0% |
  Multipole moments:                          0.001     0.001   0.0% |
  Normalize:                                  0.000     0.000   0.0% |
  Pseudo density:                           147.300     0.003   0.0% |
   Calculate density matrix:                  0.248     0.248   0.1% |
   Construct density:                       147.049   147.049  39.3% |---------------|
   Symmetrize density:                        0.000     0.000   0.0% |
 Hamiltonian:                                 2.577     0.000   0.0% |
  Atomic:                                     1.898     0.006   0.0% |
   XC Correction:                             1.892     1.892   0.5% |
  Calculate atomic Hamiltonians:              0.061     0.061   0.0% |
  Communicate:                                0.000     0.000   0.0% |
  Hartree integrate/restrict:                 0.015     0.015   0.0% |
  Poisson:                                    0.214     0.008   0.0% |
   Communicate from 1D:                       0.026     0.026   0.0% |
   Communicate from 2D:                       0.026     0.026   0.0% |
   Communicate to 1D:                         0.019     0.019   0.0% |
   Communicate to 2D:                         0.027     0.027   0.0% |
   FFT 1D:                                    0.021     0.021   0.0% |
   FFT 2D:                                    0.086     0.086   0.0% |
  XC 3D grid:                                 0.385     0.385   0.1% |
  vbar:                                       0.005     0.005   0.0% |
 LCAO eigensolver:                           45.042     0.031   0.0% |
  Calculate projections:                      1.073     1.073   0.3% |
  DenseAtomicCorrection:                      5.000     5.000   1.3% ||
  Distribute overlap matrix:                  0.067     0.067   0.0% |
  Orbital Layouts:                           15.693    15.693   4.2% |-|
  Potential matrix:                          17.763    17.763   4.7% |-|
  Sum over cells:                             5.414     5.414   1.4% ||
ST tci:                                       0.835     0.835   0.2% |
Set symmetry:                                 0.001     0.001   0.0% |
TCI: Evaluate splines:                        0.025     0.025   0.0% |
mktci:                                        0.032     0.032   0.0% |
Other:                                        2.804     2.804   0.7% |
--------------------------------------------------------------------
Total:                                                374.247 100.0%

Memory usage: 3.05 GiB
Date: Wed Nov 19 20:59:01 2025
