
  ___ ___ ___ _ _ _  
 |   |   |_  | | | | 
 | | | | | . | | | | 
 |__ |  _|___|_____|  25.1.0
 |___|_|             

User:   tshepo@Tshepos-MacBook-Pro.local
Date:   Fri Nov  7 10:03:46 2025
Arch:   arm64
Pid:    84636
CWD:    /Users/tshepo/Documents/Workspace/msc/repositories/symmetry/production
Python: 3.13.0
gpaw:   /Users/tshepo/.asdf/installs/python/3.13.0/lib/python3.13/site-packages/gpaw
_gpaw:  /Users/tshepo/.asdf/installs/python/3.13.0/lib/python3.13/site-packages/
        _gpaw.cpython-313-darwin.so
ase:    /Users/tshepo/.asdf/installs/python/3.13.0/lib/python3.13/site-packages/ase (version 3.25.0)
numpy:  /Users/tshepo/.asdf/installs/python/3.13.0/lib/python3.13/site-packages/numpy (version 2.2.3)
scipy:  /Users/tshepo/.asdf/installs/python/3.13.0/lib/python3.13/site-packages/scipy (version 1.15.2)
libxc:  7.0.0
units:  Angstrom and eV
cores: 1
OpenMP: False
OMP_NUM_THREADS: 1

Input parameters:
  basis: dzp
  convergence: {density: 1e-05}
  h: 0.2
  kpts: [6 6 6]
  mode: lcao
  symmetry: {point_group: True}
  xc: PBE

System changes: positions, numbers, cell, pbc, initial_charges, initial_magmoms 

Initialize ...

species:
  Si:
    name: Silicon
    id: ee77bee481871cc2cb65ac61239ccafa
    Z: 14.0
    valence: 4
    core: 10
    charge: 0.0
    file: /Users/tshepo/.gpaw/gpaw-setups-24.11.0/Si.PBE.gz
    compensation charges: {type: gauss,
                           rc: 0.33,
                           lmax: 2}
    cutoffs: {filter: 1.86,
              core: 2.06}
    projectors:
      #              energy  rcut
      - 3s(2.00)   -10.812   1.058
      - 3p(2.00)    -4.081   1.058
      -  s          16.399   1.058
      -  p          23.130   1.058
      -  d           0.000   1.058
  
    # LCAO basis set for Si:
    #   Name: dzp
    #   File: /Users/tshepo/.gpaw/gpaw-setups-24.11.0/Si.dzp.basis.gz
    #   Number of radial functions: 5
    #   Number of spherical harmonics: 13
    #     l=0, rc=6.8594 Bohr: 3s-sz confined orbital
    #     l=1, rc=9.0625 Bohr: 3p-sz confined orbital
    #     l=0, rc=3.8906 Bohr: 3s-dz split-valence wave
    #     l=1, rc=5.2344 Bohr: 3p-dz split-valence wave
    #     l=2, rc=9.0625 Bohr: d-type Gaussian polarization
    #   Number of RI-basis functions 0

Reference energy: -15772.688500  # eV

Spin-paired calculation

Convergence criteria:
 Maximum [total energy] change in last 3 cyles: 0.0005 eV / valence electron
 Maximum integral of absolute [dens]ity change: 1e-05 electrons / valence electron
 Maximum integral of absolute [eigenst]ate change: 4e-08 eV^2 / valence electron
 Maximum number of scf [iter]ations: 333
 (Square brackets indicate name in SCF output, whereas a 'c' in
 the SCF output indicates the quantity has converged.)

Symmetries present (total): 24

  ( 1  0  0)  ( 1  0  0)  ( 1  0 -1)  ( 1  0 -1)  ( 1 -1  0)  ( 1 -1  0)
  ( 0  1  0)  ( 0  0  1)  ( 0  1 -1)  ( 0  0 -1)  ( 0 -1  1)  ( 0 -1  0)
  ( 0  0  1)  ( 0  1  0)  ( 0  0 -1)  ( 0  1 -1)  ( 0 -1  0)  ( 0 -1  1)

  ( 0  1  0)  ( 0  1  0)  ( 0  1 -1)  ( 0  1 -1)  ( 0  0  1)  ( 0  0  1)
  ( 1  0  0)  ( 0  0  1)  ( 1  0 -1)  ( 0  0 -1)  ( 1  0  0)  ( 0  1  0)
  ( 0  0  1)  ( 1  0  0)  ( 0  0 -1)  ( 1  0 -1)  ( 0  1  0)  ( 1  0  0)

  ( 0  0 -1)  ( 0  0 -1)  ( 0 -1  1)  ( 0 -1  1)  ( 0 -1  0)  ( 0 -1  0)
  ( 1  0 -1)  ( 0  1 -1)  ( 1 -1  0)  ( 0 -1  0)  ( 1 -1  0)  ( 0 -1  1)
  ( 0  1 -1)  ( 1  0 -1)  ( 0 -1  0)  ( 1 -1  0)  ( 0 -1  1)  ( 1 -1  0)

  (-1  1  0)  (-1  1  0)  (-1  0  1)  (-1  0  1)  (-1  0  0)  (-1  0  0)
  (-1  0  1)  (-1  0  0)  (-1  1  0)  (-1  0  0)  (-1  1  0)  (-1  0  1)
  (-1  0  0)  (-1  0  1)  (-1  0  0)  (-1  1  0)  (-1  0  1)  (-1  1  0)
Note: your k-points are not as symmetric as your crystal!

216 k-points: 6 x 6 x 6 Monkhorst-Pack grid
28 k-points in the irreducible part of the Brillouin zone
       k-points in crystal coordinates                weights
   0:     0.08333333    0.08333333   -0.08333333          6/216
   1:     0.08333333    0.08333333    0.08333333          2/216
   2:     0.25000000   -0.08333333   -0.08333333          6/216
   3:     0.25000000    0.08333333   -0.25000000         12/216
   4:     0.25000000    0.08333333   -0.08333333         12/216
   5:     0.25000000    0.08333333    0.08333333          6/216
   6:     0.25000000    0.25000000   -0.25000000          6/216
   7:     0.25000000    0.25000000   -0.08333333          6/216
   8:     0.25000000    0.25000000    0.08333333          6/216
   9:     0.25000000    0.25000000    0.25000000          2/216
          ...
  27:     0.41666667    0.41666667    0.41666667          2/216

Wave functions: LCAO
  Diagonalizer: Serial LAPACK
  Atomic Correction: dense with blas
  Data-type: complex
 

Occupation numbers: Fermi-Dirac:
  width: 0.1000  # eV
 

Eigensolver
   LCAO using direct dense diagonalizer 

Densities:
  Coarse grid: 16*16*16 grid
  Fine grid: 32*32*32 grid
  Total Charge: 0.000000 

Density mixing:
  Method: separate
  Backend: pulay
  Linear mixing parameter: 0.05
  old densities: 5
  Damping of long wavelength oscillations: 50 

Hamiltonian:
  XC and Coulomb potentials evaluated on a 32*32*32 grid
  Using the PBE Exchange-Correlation functional
  Interpolation: tri-quintic (5. degree polynomial)
  Poisson solver: FastPoissonSolver using
    Stencil: 12*3+1=37 point O(h^6) finite-difference Laplacian
    FFT axes: [np.int64(0), np.int64(1), np.int64(2)]
    FST axes: []
 

XC parameters: PBE with 2 nearest neighbor stencil

Memory estimate:
  Process memory now: 101.11 MiB
  Calculator: 13.76 MiB
    Density: 5.65 MiB
      Arrays: 0.81 MiB
      Localized functions: 4.52 MiB
      Mixer: 0.31 MiB
    Hamiltonian: 0.87 MiB
      Arrays: 0.53 MiB
      XC: 0.00 MiB
      Poisson: 0.00 MiB
      vbar: 0.34 MiB
    Wavefunctions: 7.24 MiB
      C [qnM]: 0.09 MiB
      S, T [2 x qmm]: 0.58 MiB
      P [aqMi]: 0.02 MiB
      BasisFunctions: 6.56 MiB
      Eigensolver: 0.00 MiB

Total number of cores used: 1

Number of atoms: 2
Number of atomic orbitals: 26
Number of bands in calculation: 8
Number of valence electrons: 8
Bands to converge: occupied

... initialized

Initializing position-dependent things.

Density initialized from atomic densities
                    
                    
                    
                    
           Si       
                    
       Si           
                    
                    
                    
                    

Positions:
   0 Si     0.000000    0.000000    0.000000    ( 0.0000,  0.0000,  0.0000)
   1 Si     1.357500    1.357500    1.357500    ( 0.0000,  0.0000,  0.0000)

Unit cell:
           periodic     x           y           z      points  spacing
  1. axis:    yes    0.000000    2.715000    2.715000    16     0.1959
  2. axis:    yes    2.715000    0.000000    2.715000    16     0.1959
  3. axis:    yes    2.715000    2.715000    0.000000    16     0.1959

  Lengths:   3.839590   3.839590   3.839590
  Angles:   60.000000  60.000000  60.000000

Effective grid spacing dv^(1/3) = 0.2138

     iter     time        total  log10-change:
                         energy   eigst   dens
iter:   1 10:03:47   -10.584212        c
iter:   2 10:03:48   -10.583835        c -0.84
iter:   3 10:03:50   -10.588943        c -0.86
iter:   4 10:03:51   -10.587149        c -1.90
iter:   5 10:03:53   -10.587046c       c -2.25
iter:   6 10:03:55   -10.587046c       c -3.65
iter:   7 10:03:56   -10.587046c       c -3.65
iter:   8 10:03:58   -10.587046c       c -4.64
iter:   9 10:04:00   -10.587046c       c -4.84
iter:  10 10:04:01   -10.587046c       c -8.11c

Converged after 10 iterations.

Dipole moment: (-3.969871, -3.969871, -3.969871) |e|*Ang

Energy contributions relative to reference atoms: (reference = -15772.688500)

Kinetic:        +14.174596
Potential:      -12.335249
External:        +0.000000
XC:             -12.410531
Entropy (-ST):   -0.000511
Local:           -0.015607
SIC:             +0.000000
--------------------------
Free energy:    -10.587301
Extrapolated:   -10.587046

Showing only first 2 kpts
 Kpt  Band  Eigenvalues  Occupancy
  0     2      4.50835    1.99997
  0     3      4.69945    1.99982
  0     4      7.70739    0.00000
  0     5      8.61590    0.00000

  1     2      5.16194    1.98199
  1     3      5.16194    1.98199
  1     4      7.99600    0.00000
  1     5      8.17138    0.00000


Fermi level: 5.63205

Gap: 0.994 eV
Transition (v -> c):
  (s=0, k=1, n=3, [0.08, 0.08, 0.08]) -> (s=0, k=24, n=4, [0.42, 0.42, -0.08])
Direct/indirect transitions are different
Direct gap: 2.814 eV
Transition at: (s=0, k=27, n=3, [0.42, 0.42, 0.42])
Writing to ./data/meta/si_primitive.gpw (mode='')

Timing:                              incl.     excl.
-----------------------------------------------------------
Basic WFS set positions:             0.000     0.000   0.0% |
Basis functions set positions:       0.006     0.006   0.0% |
LCAO WFS Initialize:                 0.021     0.002   0.0% |
 Hamiltonian:                        0.019     0.000   0.0% |
  Atomic:                            0.014     0.000   0.0% |
   XC Correction:                    0.014     0.014   0.1% |
  Calculate atomic Hamiltonians:     0.000     0.000   0.0% |
  Communicate:                       0.000     0.000   0.0% |
  Hartree integrate/restrict:        0.000     0.000   0.0% |
  Initialize Hamiltonian:            0.000     0.000   0.0% |
  Poisson:                           0.001     0.000   0.0% |
   Communicate from 1D:              0.000     0.000   0.0% |
   Communicate from 2D:              0.000     0.000   0.0% |
   Communicate to 1D:                0.000     0.000   0.0% |
   Communicate to 2D:                0.000     0.000   0.0% |
   FFT 1D:                           0.000     0.000   0.0% |
   FFT 2D:                           0.001     0.001   0.0% |
  XC 3D grid:                        0.003     0.003   0.0% |
  vbar:                              0.000     0.000   0.0% |
P tci:                               0.015     0.015   0.1% |
SCF-cycle:                          14.924     0.007   0.0% |
 Density:                           13.949     0.000   0.0% |
  Atomic density matrices:           0.007     0.007   0.0% |
  Mix:                               0.006     0.006   0.0% |
  Multipole moments:                 0.000     0.000   0.0% |
  Normalize:                         0.000     0.000   0.0% |
  Pseudo density:                   13.935     0.001   0.0% |
   Calculate density matrix:         0.005     0.005   0.0% |
   Construct density:               13.927    13.927  92.3% |------------------------------------|
   Symmetrize density:               0.003     0.003   0.0% |
 Hamiltonian:                        0.169     0.000   0.0% |
  Atomic:                            0.129     0.001   0.0% |
   XC Correction:                    0.128     0.128   0.8% |
  Calculate atomic Hamiltonians:     0.004     0.004   0.0% |
  Communicate:                       0.000     0.000   0.0% |
  Hartree integrate/restrict:        0.001     0.001   0.0% |
  Poisson:                           0.012     0.001   0.0% |
   Communicate from 1D:              0.002     0.002   0.0% |
   Communicate from 2D:              0.001     0.001   0.0% |
   Communicate to 1D:                0.002     0.002   0.0% |
   Communicate to 2D:                0.002     0.002   0.0% |
   FFT 1D:                           0.001     0.001   0.0% |
   FFT 2D:                           0.004     0.004   0.0% |
  XC 3D grid:                        0.023     0.023   0.2% |
  vbar:                              0.000     0.000   0.0% |
 LCAO eigensolver:                   0.799     0.002   0.0% |
  Calculate projections:             0.002     0.002   0.0% |
  DenseAtomicCorrection:             0.012     0.012   0.1% |
  Distribute overlap matrix:         0.001     0.001   0.0% |
  Orbital Layouts:                   0.036     0.036   0.2% |
  Potential matrix:                  0.706     0.706   4.7% |-|
  Sum over cells:                    0.041     0.041   0.3% |
ST tci:                              0.026     0.026   0.2% |
Set symmetry:                        0.005     0.005   0.0% |
TCI: Evaluate splines:               0.012     0.012   0.1% |
mktci:                               0.004     0.004   0.0% |
Other:                               0.083     0.083   0.6% |
-----------------------------------------------------------
Total:                                        15.095 100.0%

Memory usage: 126.50 MiB
Date: Fri Nov  7 10:04:01 2025
