
  ___ ___ ___ _ _ _  
 |   |   |_  | | | | 
 | | | | | . | | | | 
 |__ |  _|___|_____|  25.1.0
 |___|_|             

User:   tshepo@RE220
Date:   Thu Oct  2 21:10:20 2025
Arch:   arm64
Pid:    18116
CWD:    /Users/tshepo/Documents/Workspace/msc/repositories/symmetry
Python: 3.13.0
gpaw:   /Users/tshepo/.asdf/installs/python/3.13.0/lib/python3.13/site-packages/gpaw
_gpaw:  /Users/tshepo/.asdf/installs/python/3.13.0/lib/python3.13/site-packages/
        _gpaw.cpython-313-darwin.so
ase:    /Users/tshepo/.asdf/installs/python/3.13.0/lib/python3.13/site-packages/ase (version 3.25.0)
numpy:  /Users/tshepo/.asdf/installs/python/3.13.0/lib/python3.13/site-packages/numpy (version 2.2.3)
scipy:  /Users/tshepo/.asdf/installs/python/3.13.0/lib/python3.13/site-packages/scipy (version 1.15.2)
libxc:  7.0.0
units:  Angstrom and eV
cores: 1
OpenMP: False
OMP_NUM_THREADS: 1

Input parameters:
  basis: dzp
  h: 0.25
  kpts: [3 3 3]
  mode: lcao
  xc: PBE

System changes: positions, numbers, cell, pbc, initial_charges, initial_magmoms 

Initialize ...

species:
  Si:
    name: Silicon
    id: ee77bee481871cc2cb65ac61239ccafa
    Z: 14.0
    valence: 4
    core: 10
    charge: 0.0
    file: /Users/tshepo/.gpaw/gpaw-setups-24.11.0/Si.PBE.gz
    compensation charges: {type: gauss,
                           rc: 0.33,
                           lmax: 2}
    cutoffs: {filter: 1.86,
              core: 2.06}
    projectors:
      #              energy  rcut
      - 3s(2.00)   -10.812   1.058
      - 3p(2.00)    -4.081   1.058
      -  s          16.399   1.058
      -  p          23.130   1.058
      -  d           0.000   1.058
  
    # LCAO basis set for Si:
    #   Name: dzp
    #   File: /Users/tshepo/.gpaw/gpaw-setups-24.11.0/Si.dzp.basis.gz
    #   Number of radial functions: 5
    #   Number of spherical harmonics: 13
    #     l=0, rc=6.8594 Bohr: 3s-sz confined orbital
    #     l=1, rc=9.0625 Bohr: 3p-sz confined orbital
    #     l=0, rc=3.8906 Bohr: 3s-dz split-valence wave
    #     l=1, rc=5.2344 Bohr: 3p-dz split-valence wave
    #     l=2, rc=9.0625 Bohr: d-type Gaussian polarization
    #   Number of RI-basis functions 0

Reference energy: -63090.754002  # eV

Spin-paired calculation

Convergence criteria:
 Maximum [total energy] change in last 3 cyles: 0.0005 eV / valence electron
 Maximum integral of absolute [dens]ity change: 0.0001 electrons / valence electron
 Maximum integral of absolute [eigenst]ate change: 4e-08 eV^2 / valence electron
 Maximum number of scf [iter]ations: 333
 (Square brackets indicate name in SCF output, whereas a 'c' in
 the SCF output indicates the quantity has converged.)

Symmetries present (total): 24

  ( 1  0  0)  ( 1  0  0)  ( 1  0  0)  ( 1  0  0)  ( 0  1  0)  ( 0  1  0)
  ( 0  1  0)  ( 0  0  1)  ( 0  0 -1)  ( 0 -1  0)  ( 1  0  0)  ( 0  0  1)
  ( 0  0  1)  ( 0  1  0)  ( 0 -1  0)  ( 0  0 -1)  ( 0  0  1)  ( 1  0  0)

  ( 0  1  0)  ( 0  1  0)  ( 0  0  1)  ( 0  0  1)  ( 0  0  1)  ( 0  0  1)
  ( 0  0 -1)  (-1  0  0)  ( 1  0  0)  ( 0  1  0)  ( 0 -1  0)  (-1  0  0)
  (-1  0  0)  ( 0  0 -1)  ( 0  1  0)  ( 1  0  0)  (-1  0  0)  ( 0 -1  0)

  ( 0  0 -1)  ( 0  0 -1)  ( 0  0 -1)  ( 0  0 -1)  ( 0 -1  0)  ( 0 -1  0)
  ( 1  0  0)  ( 0  1  0)  ( 0 -1  0)  (-1  0  0)  ( 1  0  0)  ( 0  0  1)
  ( 0 -1  0)  (-1  0  0)  ( 1  0  0)  ( 0  1  0)  ( 0  0 -1)  (-1  0  0)

  ( 0 -1  0)  ( 0 -1  0)  (-1  0  0)  (-1  0  0)  (-1  0  0)  (-1  0  0)
  ( 0  0 -1)  (-1  0  0)  ( 0  1  0)  ( 0  0  1)  ( 0  0 -1)  ( 0 -1  0)
  ( 1  0  0)  ( 0  0  1)  ( 0  0 -1)  ( 0 -1  0)  ( 0  1  0)  ( 0  0  1)

27 k-points: 3 x 3 x 3 Monkhorst-Pack grid
4 k-points in the irreducible part of the Brillouin zone
       k-points in crystal coordinates                weights
   0:     0.00000000    0.00000000    0.00000000          1/27
   1:     0.33333333    0.00000000    0.00000000          6/27
   2:     0.33333333    0.33333333    0.00000000         12/27
   3:     0.33333333    0.33333333    0.33333333          8/27

Wave functions: LCAO
  Diagonalizer: Serial LAPACK
  Atomic Correction: dense with blas
  Data-type: complex
 

Occupation numbers: Fermi-Dirac:
  width: 0.1000  # eV
 

Eigensolver
   LCAO using direct dense diagonalizer 

Densities:
  Coarse grid: 20*20*20 grid
  Fine grid: 40*40*40 grid
  Total Charge: 0.000000 

Density mixing:
  Method: separate
  Backend: pulay
  Linear mixing parameter: 0.05
  old densities: 5
  Damping of long wavelength oscillations: 50 

Hamiltonian:
  XC and Coulomb potentials evaluated on a 40*40*40 grid
  Using the PBE Exchange-Correlation functional
  Interpolation: tri-quintic (5. degree polynomial)
  Poisson solver: FastPoissonSolver using
    Stencil: 6*3+1=19 point O(h^6) finite-difference Laplacian
    FFT axes: [np.int64(0), np.int64(1), np.int64(2)]
    FST axes: []
 

XC parameters: PBE with 2 nearest neighbor stencil

Memory estimate:
  Process memory now: 106.34 MiB
  Calculator: 27.05 MiB
    Density: 11.03 MiB
      Arrays: 1.59 MiB
      Localized functions: 8.83 MiB
      Mixer: 0.61 MiB
    Hamiltonian: 1.69 MiB
      Arrays: 1.04 MiB
      XC: 0.00 MiB
      Poisson: 0.00 MiB
      vbar: 0.66 MiB
    Wavefunctions: 14.32 MiB
      C [qnM]: 0.15 MiB
      S, T [2 x qmm]: 1.32 MiB
      P [aqMi]: 0.04 MiB
      BasisFunctions: 12.81 MiB
      Eigensolver: 0.00 MiB

Total number of cores used: 1

Number of atoms: 8
Number of atomic orbitals: 104
Number of bands in calculation: 24
Number of valence electrons: 32
Bands to converge: occupied

... initialized

Initializing position-dependent things.

Density initialized from atomic densities
    .------------.  
   /|            |  
  / | Si         |  
 *  |            |  
 |  |      Si    |  
 | Si            |  
 |  |  Si    Si  |  
 |  .------------.  
 | / Si  Si     /   
 |/            /    
 Si-----------*     

Positions:
   0 Si     0.000000    0.000000    0.000000    ( 0.0000,  0.0000,  0.0000)
   1 Si     1.357500    1.357500    1.357500    ( 0.0000,  0.0000,  0.0000)
   2 Si     0.000000    2.715000    2.715000    ( 0.0000,  0.0000,  0.0000)
   3 Si     1.357500    4.072500    4.072500    ( 0.0000,  0.0000,  0.0000)
   4 Si     2.715000    0.000000    2.715000    ( 0.0000,  0.0000,  0.0000)
   5 Si     4.072500    1.357500    4.072500    ( 0.0000,  0.0000,  0.0000)
   6 Si     2.715000    2.715000    0.000000    ( 0.0000,  0.0000,  0.0000)
   7 Si     4.072500    4.072500    1.357500    ( 0.0000,  0.0000,  0.0000)

Unit cell:
           periodic     x           y           z      points  spacing
  1. axis:    yes    5.430000    0.000000    0.000000    20     0.2715
  2. axis:    yes    0.000000    5.430000    0.000000    20     0.2715
  3. axis:    yes    0.000000    0.000000    5.430000    20     0.2715

  Lengths:   5.430000   5.430000   5.430000
  Angles:   90.000000  90.000000  90.000000

Effective grid spacing dv^(1/3) = 0.2715

     iter     time        total  log10-change:
                         energy   eigst   dens
iter:   1 21:10:21   -42.168527        c
iter:   2 21:10:22   -42.166037        c -0.83
Timing:                              incl.     excl.
-----------------------------------------------------------
Basic WFS set positions:             0.001     0.001   0.1% |
Basis functions set positions:       0.009     0.009   0.6% |
LCAO WFS Initialize:                 0.068     0.004   0.3% |
 Hamiltonian:                        0.064     0.000   0.0% |
  Atomic:                            0.057     0.000   0.0% |
   XC Correction:                    0.057     0.057   3.7% ||
  Calculate atomic Hamiltonians:     0.001     0.001   0.1% |
  Communicate:                       0.000     0.000   0.0% |
  Hartree integrate/restrict:        0.000     0.000   0.0% |
  Initialize Hamiltonian:            0.000     0.000   0.0% |
  Poisson:                           0.002     0.000   0.0% |
   Communicate from 1D:              0.000     0.000   0.0% |
   Communicate from 2D:              0.000     0.000   0.0% |
   Communicate to 1D:                0.000     0.000   0.0% |
   Communicate to 2D:                0.000     0.000   0.0% |
   FFT 1D:                           0.000     0.000   0.0% |
   FFT 2D:                           0.001     0.001   0.0% |
  XC 3D grid:                        0.004     0.004   0.2% |
  vbar:                              0.000     0.000   0.0% |
P tci:                               0.031     0.031   2.0% ||
SCF-cycle:                           1.251     0.001   0.0% |
 Density:                            0.866     0.012   0.8% |
  Atomic density matrices:           0.002     0.002   0.2% |
  Mix:                               0.001     0.001   0.1% |
  Multipole moments:                 0.000     0.000   0.0% |
  Normalize:                         0.000     0.000   0.0% |
  Pseudo density:                    0.851     0.000   0.0% |
   Calculate density matrix:         0.001     0.001   0.0% |
   Construct density:                0.850     0.850  55.9% |---------------------|
   Symmetrize density:               0.001     0.001   0.0% |
 Hamiltonian:                        0.065     0.000   0.0% |
  Atomic:                            0.057     0.000   0.0% |
   XC Correction:                    0.057     0.057   3.8% |-|
  Calculate atomic Hamiltonians:     0.001     0.001   0.1% |
  Communicate:                       0.000     0.000   0.0% |
  Hartree integrate/restrict:        0.000     0.000   0.0% |
  Poisson:                           0.003     0.000   0.0% |
   Communicate from 1D:              0.000     0.000   0.0% |
   Communicate from 2D:              0.001     0.001   0.0% |
   Communicate to 1D:                0.000     0.000   0.0% |
   Communicate to 2D:                0.000     0.000   0.0% |
   FFT 1D:                           0.000     0.000   0.0% |
   FFT 2D:                           0.001     0.001   0.0% |
  XC 3D grid:                        0.003     0.003   0.2% |
  vbar:                              0.000     0.000   0.0% |
 LCAO eigensolver:                   0.319     0.000   0.0% |
  Calculate projections:             0.001     0.001   0.0% |
  DenseAtomicCorrection:             0.002     0.002   0.2% |
  Distribute overlap matrix:         0.000     0.000   0.0% |
  Orbital Layouts:                   0.024     0.024   1.6% ||
  Potential matrix:                  0.288     0.288  18.9% |-------|
  Sum over cells:                    0.004     0.004   0.3% |
ST tci:                              0.039     0.039   2.6% ||
Set symmetry:                        0.002     0.002   0.2% |
TCI: Evaluate splines:               0.012     0.012   0.8% |
mktci:                               0.004     0.004   0.2% |
Other:                               0.103     0.103   6.8% |--|
-----------------------------------------------------------
Total:                                         1.521 100.0%

Memory usage: 158.42 MiB
Date: Thu Oct  2 21:10:22 2025
