
  ___ ___ ___ _ _ _  
 |   |   |_  | | | | 
 | | | | | . | | | | 
 |__ |  _|___|_____|  25.1.0
 |___|_|             

User:   tshepo@Tshepos-MacBook-Pro.local
Date:   Wed Oct 22 21:55:30 2025
Arch:   arm64
Pid:    22961
CWD:    /Users/tshepo/Documents/Workspace/msc/repositories/symmetry
Python: 3.13.0
gpaw:   /Users/tshepo/.asdf/installs/python/3.13.0/lib/python3.13/site-packages/gpaw
_gpaw:  /Users/tshepo/.asdf/installs/python/3.13.0/lib/python3.13/site-packages/
        _gpaw.cpython-313-darwin.so
ase:    /Users/tshepo/.asdf/installs/python/3.13.0/lib/python3.13/site-packages/ase (version 3.25.0)
numpy:  /Users/tshepo/.asdf/installs/python/3.13.0/lib/python3.13/site-packages/numpy (version 2.2.3)
scipy:  /Users/tshepo/.asdf/installs/python/3.13.0/lib/python3.13/site-packages/scipy (version 1.15.2)
libxc:  7.0.0
units:  Angstrom and eV
cores: 1
OpenMP: False
OMP_NUM_THREADS: 1

Input parameters:
  basis: dzp
  convergence: {density: 1e-05}
  h: 0.12
  kpts: [6 6 6]
  mode: lcao
  symmetry: {point_group: False}
  xc: PBE

System changes: positions, numbers, cell, pbc, initial_charges, initial_magmoms 

Initialize ...

species:
  Si:
    name: Silicon
    id: ee77bee481871cc2cb65ac61239ccafa
    Z: 14.0
    valence: 4
    core: 10
    charge: 0.0
    file: /Users/tshepo/.gpaw/gpaw-setups-24.11.0/Si.PBE.gz
    compensation charges: {type: gauss,
                           rc: 0.33,
                           lmax: 2}
    cutoffs: {filter: 1.86,
              core: 2.06}
    projectors:
      #              energy  rcut
      - 3s(2.00)   -10.812   1.058
      - 3p(2.00)    -4.081   1.058
      -  s          16.399   1.058
      -  p          23.130   1.058
      -  d           0.000   1.058
  
    # LCAO basis set for Si:
    #   Name: dzp
    #   File: /Users/tshepo/.gpaw/gpaw-setups-24.11.0/Si.dzp.basis.gz
    #   Number of radial functions: 5
    #   Number of spherical harmonics: 13
    #     l=0, rc=6.8594 Bohr: 3s-sz confined orbital
    #     l=1, rc=9.0625 Bohr: 3p-sz confined orbital
    #     l=0, rc=3.8906 Bohr: 3s-dz split-valence wave
    #     l=1, rc=5.2344 Bohr: 3p-dz split-valence wave
    #     l=2, rc=9.0625 Bohr: d-type Gaussian polarization
    #   Number of RI-basis functions 0

Reference energy: -15772.688500  # eV

Spin-paired calculation

Convergence criteria:
 Maximum [total energy] change in last 3 cyles: 0.0005 eV / valence electron
 Maximum integral of absolute [dens]ity change: 1e-05 electrons / valence electron
 Maximum integral of absolute [eigenst]ate change: 4e-08 eV^2 / valence electron
 Maximum number of scf [iter]ations: 333
 (Square brackets indicate name in SCF output, whereas a 'c' in
 the SCF output indicates the quantity has converged.)

Symmetries present (total): 1

  ( 1  0  0)
  ( 0  1  0)
  ( 0  0  1)

216 k-points: 6 x 6 x 6 Monkhorst-Pack grid
108 k-points in the irreducible part of the Brillouin zone
       k-points in crystal coordinates                weights
   0:     0.08333333   -0.41666667   -0.41666667          2/216
   1:     0.08333333   -0.41666667   -0.25000000          2/216
   2:     0.08333333   -0.41666667   -0.08333333          2/216
   3:     0.08333333   -0.41666667    0.08333333          2/216
   4:     0.08333333   -0.41666667    0.25000000          2/216
   5:     0.08333333   -0.41666667    0.41666667          2/216
   6:     0.08333333   -0.25000000   -0.41666667          2/216
   7:     0.08333333   -0.25000000   -0.25000000          2/216
   8:     0.08333333   -0.25000000   -0.08333333          2/216
   9:     0.08333333   -0.25000000    0.08333333          2/216
          ...
 107:     0.41666667    0.41666667    0.41666667          2/216

Wave functions: LCAO
  Diagonalizer: Serial LAPACK
  Atomic Correction: dense with blas
  Data-type: complex
 

Occupation numbers: Fermi-Dirac:
  width: 0.1000  # eV
 

Eigensolver
   LCAO using direct dense diagonalizer 

Densities:
  Coarse grid: 28*28*28 grid
  Fine grid: 56*56*56 grid
  Total Charge: 0.000000 

Density mixing:
  Method: separate
  Backend: pulay
  Linear mixing parameter: 0.05
  old densities: 5
  Damping of long wavelength oscillations: 50 

Hamiltonian:
  XC and Coulomb potentials evaluated on a 56*56*56 grid
  Using the PBE Exchange-Correlation functional
  Interpolation: tri-quintic (5. degree polynomial)
  Poisson solver: FastPoissonSolver using
    Stencil: 12*3+1=37 point O(h^6) finite-difference Laplacian
    FFT axes: [np.int64(0), np.int64(1), np.int64(2)]
    FST axes: []
 

XC parameters: PBE with 2 nearest neighbor stencil

Memory estimate:
  Process memory now: 131.34 MiB
  Calculator: 72.71 MiB
    Density: 30.27 MiB
      Arrays: 4.35 MiB
      Localized functions: 24.24 MiB
      Mixer: 1.67 MiB
    Hamiltonian: 4.65 MiB
      Arrays: 2.85 MiB
      XC: 0.00 MiB
      Poisson: 0.00 MiB
      vbar: 1.80 MiB
    Wavefunctions: 37.79 MiB
      C [qnM]: 0.34 MiB
      S, T [2 x qmm]: 2.23 MiB
      P [aqMi]: 0.07 MiB
      BasisFunctions: 35.15 MiB
      Eigensolver: 0.00 MiB

Total number of cores used: 1

Number of atoms: 2
Number of atomic orbitals: 26
Number of bands in calculation: 8
Number of valence electrons: 8
Bands to converge: occupied

... initialized

Initializing position-dependent things.

Density initialized from atomic densities
                    
                    
                    
                    
           Si       
                    
       Si           
                    
                    
                    
                    

Positions:
   0 Si     0.000000    0.000000    0.000000    ( 0.0000,  0.0000,  0.0000)
   1 Si     1.357500    1.357500    1.357500    ( 0.0000,  0.0000,  0.0000)

Unit cell:
           periodic     x           y           z      points  spacing
  1. axis:    yes    0.000000    2.715000    2.715000    28     0.1120
  2. axis:    yes    2.715000    0.000000    2.715000    28     0.1120
  3. axis:    yes    2.715000    2.715000    0.000000    28     0.1120

  Lengths:   3.839590   3.839590   3.839590
  Angles:   60.000000  60.000000  60.000000

Effective grid spacing dv^(1/3) = 0.1222

     iter     time        total  log10-change:
                         energy   eigst   dens
iter:   1 21:55:31   -10.597628        c
iter:   2 21:56:05   -10.597248        c -0.84
iter:   3 21:56:37   -10.602333        c -0.86
iter:   4 21:57:10   -10.600506        c -1.90
iter:   5 21:57:45   -10.600407c       c -2.25
iter:   6 21:58:17   -10.600407c       c -3.65
iter:   7 21:58:52   -10.600408c       c -3.68
iter:   8 21:59:25   -10.600408c       c -4.56
iter:   9 21:59:58   -10.600408c       c -4.89
iter:  10 22:00:32   -10.600408c       c -6.22c

Converged after 10 iterations.

Dipole moment: (-3.544854, -3.544854, -3.544854) |e|*Ang

Energy contributions relative to reference atoms: (reference = -15772.688500)

Kinetic:        +14.196192
Potential:      -12.357179
External:        +0.000000
XC:             -12.412124
Entropy (-ST):   -0.000513
Local:           -0.027041
SIC:             +0.000000
--------------------------
Free energy:    -10.600664
Extrapolated:   -10.600408

Showing only first 2 kpts
 Kpt  Band  Eigenvalues  Occupancy
  0     2      2.12857    2.00000
  0     3      2.52534    2.00000
  0     4      6.15502    0.01061
  0     5      6.74101    0.00003

  1     2      1.87386    2.00000
  1     3      2.67369    2.00000
  1     4      7.12016    0.00000
  1     5      8.47090    0.00000


Fermi level: 5.63165

Gap: 0.993 eV
Transition (v -> c):
  (s=0, k=21, n=3, [0.08, 0.08, 0.08]) -> (s=0, k=89, n=4, [0.42, -0.08, 0.42])
Direct/indirect transitions are different
Direct gap: 2.812 eV
Transition at: (s=0, k=107, n=3, [0.42, 0.42, 0.42])
System changes: cell, positions, numbers 

Initialize ...

species:
  Si:
    name: Silicon
    id: ee77bee481871cc2cb65ac61239ccafa
    Z: 14.0
    valence: 4
    core: 10
    charge: 0.0
    file: /Users/tshepo/.gpaw/gpaw-setups-24.11.0/Si.PBE.gz
    compensation charges: {type: gauss,
                           rc: 0.33,
                           lmax: 2}
    cutoffs: {filter: 1.86,
              core: 2.06}
    projectors:
      #              energy  rcut
      - 3s(2.00)   -10.812   1.058
      - 3p(2.00)    -4.081   1.058
      -  s          16.399   1.058
      -  p          23.130   1.058
      -  d           0.000   1.058
  
    # LCAO basis set for Si:
    #   Name: dzp
    #   File: /Users/tshepo/.gpaw/gpaw-setups-24.11.0/Si.dzp.basis.gz
    #   Number of radial functions: 5
    #   Number of spherical harmonics: 13
    #     l=0, rc=6.8594 Bohr: 3s-sz confined orbital
    #     l=1, rc=9.0625 Bohr: 3p-sz confined orbital
    #     l=0, rc=3.8906 Bohr: 3s-dz split-valence wave
    #     l=1, rc=5.2344 Bohr: 3p-dz split-valence wave
    #     l=2, rc=9.0625 Bohr: d-type Gaussian polarization
    #   Number of RI-basis functions 0

Reference energy: -425862.589512  # eV

Spin-paired calculation

Convergence criteria:
 Maximum [total energy] change in last 3 cyles: 0.0005 eV / valence electron
 Maximum integral of absolute [dens]ity change: 1e-05 electrons / valence electron
 Maximum integral of absolute [eigenst]ate change: 4e-08 eV^2 / valence electron
 Maximum number of scf [iter]ations: 333
 (Square brackets indicate name in SCF output, whereas a 'c' in
 the SCF output indicates the quantity has converged.)

Symmetries present (total): 1

  ( 1  0  0)
  ( 0  1  0)
  ( 0  0  1)

216 k-points: 6 x 6 x 6 Monkhorst-Pack grid
108 k-points in the irreducible part of the Brillouin zone
       k-points in crystal coordinates                weights
   0:     0.08333333   -0.41666667   -0.41666667          2/216
   1:     0.08333333   -0.41666667   -0.25000000          2/216
   2:     0.08333333   -0.41666667   -0.08333333          2/216
   3:     0.08333333   -0.41666667    0.08333333          2/216
   4:     0.08333333   -0.41666667    0.25000000          2/216
   5:     0.08333333   -0.41666667    0.41666667          2/216
   6:     0.08333333   -0.25000000   -0.41666667          2/216
   7:     0.08333333   -0.25000000   -0.25000000          2/216
   8:     0.08333333   -0.25000000   -0.08333333          2/216
   9:     0.08333333   -0.25000000    0.08333333          2/216
          ...
 107:     0.41666667    0.41666667    0.41666667          2/216

Wave functions: LCAO
  Diagonalizer: Serial LAPACK
  Atomic Correction: dense with blas
  Data-type: complex
 

Occupation numbers: Fermi-Dirac:
  width: 0.1000  # eV
 

Eigensolver
   LCAO using direct dense diagonalizer 

Densities:
  Coarse grid: 80*80*80 grid
  Fine grid: 160*160*160 grid
  Total Charge: 0.000000 

Density mixing:
  Method: separate
  Backend: pulay
  Linear mixing parameter: 0.05
  old densities: 5
  Damping of long wavelength oscillations: 50 

Hamiltonian:
  XC and Coulomb potentials evaluated on a 160*160*160 grid
  Using the PBE Exchange-Correlation functional
  Interpolation: tri-quintic (5. degree polynomial)
  Poisson solver: FastPoissonSolver using
    Stencil: 12*3+1=37 point O(h^6) finite-difference Laplacian
    FFT axes: [np.int64(0), np.int64(1), np.int64(2)]
    FST axes: []
 

XC parameters: PBE with 2 nearest neighbor stencil

Memory estimate:
  Process memory now: 854.48 MiB
  Calculator: 3464.22 MiB
    Density: 706.02 MiB
      Arrays: 101.56 MiB
      Localized functions: 565.39 MiB
      Mixer: 39.06 MiB
    Hamiltonian: 108.43 MiB
      Arrays: 66.41 MiB
      XC: 0.00 MiB
      Poisson: 0.00 MiB
      vbar: 42.02 MiB
    Wavefunctions: 2649.77 MiB
      C [qnM]: 155.02 MiB
      S, T [2 x qmm]: 1624.23 MiB
      P [aqMi]: 50.76 MiB
      BasisFunctions: 819.76 MiB
      Eigensolver: 0.00 MiB

Total number of cores used: 1

Number of atoms: 54
Number of atomic orbitals: 702
Number of bands in calculation: 134
Number of valence electrons: 216
Bands to converge: occupied

... initialized

Initializing position-dependent things.

Density initialized from atomic densities
                                                      
                                                      
                                                      
                                                      
                                             Si       
                                    Si                
                                         Si           
                            Si        Si              
                                Si                    
                              Si           Si         
                     Si Si     Si SSi                 
                          Si           Si             
                       Si Si        Si                
                 Si        Si  Si                     
               Si           Si           Si           
                   SSiSi      SiSSi                   
           Si           Si           Si               
                     Si  Si        Si                 
                Si        Si Si                       
             Si           Si                          
                 SSi Si     Si Si                     
         Si           Si                              
                    Si                                
              Si        Si                            
           Si                                         
                Si                                    
       Si                                             
                                                      
                                                      
                                                      
                                                      

Positions:
   0 Si     0.000000    0.000000    0.000000    ( 0.0000,  0.0000,  0.0000)
   1 Si     1.357500    1.357500    1.357500    ( 0.0000,  0.0000,  0.0000)
   2 Si     2.715000    2.715000    0.000000    ( 0.0000,  0.0000,  0.0000)
   3 Si     4.072500    4.072500    1.357500    ( 0.0000,  0.0000,  0.0000)
   4 Si     5.430000    5.430000    0.000000    ( 0.0000,  0.0000,  0.0000)
   5 Si     6.787500    6.787500    1.357500    ( 0.0000,  0.0000,  0.0000)
   6 Si     2.715000    0.000000    2.715000    ( 0.0000,  0.0000,  0.0000)
   7 Si     4.072500    1.357500    4.072500    ( 0.0000,  0.0000,  0.0000)
   8 Si     5.430000    2.715000    2.715000    ( 0.0000,  0.0000,  0.0000)
   9 Si     6.787500    4.072500    4.072500    ( 0.0000,  0.0000,  0.0000)
  10 Si     8.145000    5.430000    2.715000    ( 0.0000,  0.0000,  0.0000)
  11 Si     9.502500    6.787500    4.072500    ( 0.0000,  0.0000,  0.0000)
  12 Si     5.430000    0.000000    5.430000    ( 0.0000,  0.0000,  0.0000)
  13 Si     6.787500    1.357500    6.787500    ( 0.0000,  0.0000,  0.0000)
  14 Si     8.145000    2.715000    5.430000    ( 0.0000,  0.0000,  0.0000)
  15 Si     9.502500    4.072500    6.787500    ( 0.0000,  0.0000,  0.0000)
  16 Si    10.860000    5.430000    5.430000    ( 0.0000,  0.0000,  0.0000)
  17 Si    12.217500    6.787500    6.787500    ( 0.0000,  0.0000,  0.0000)
  18 Si     0.000000    2.715000    2.715000    ( 0.0000,  0.0000,  0.0000)
  19 Si     1.357500    4.072500    4.072500    ( 0.0000,  0.0000,  0.0000)
  20 Si     2.715000    5.430000    2.715000    ( 0.0000,  0.0000,  0.0000)
  21 Si     4.072500    6.787500    4.072500    ( 0.0000,  0.0000,  0.0000)
  22 Si     5.430000    8.145000    2.715000    ( 0.0000,  0.0000,  0.0000)
  23 Si     6.787500    9.502500    4.072500    ( 0.0000,  0.0000,  0.0000)
  24 Si     2.715000    2.715000    5.430000    ( 0.0000,  0.0000,  0.0000)
  25 Si     4.072500    4.072500    6.787500    ( 0.0000,  0.0000,  0.0000)
  26 Si     5.430000    5.430000    5.430000    ( 0.0000,  0.0000,  0.0000)
  27 Si     6.787500    6.787500    6.787500    ( 0.0000,  0.0000,  0.0000)
  28 Si     8.145000    8.145000    5.430000    ( 0.0000,  0.0000,  0.0000)
  29 Si     9.502500    9.502500    6.787500    ( 0.0000,  0.0000,  0.0000)
  30 Si     5.430000    2.715000    8.145000    ( 0.0000,  0.0000,  0.0000)
  31 Si     6.787500    4.072500    9.502500    ( 0.0000,  0.0000,  0.0000)
  32 Si     8.145000    5.430000    8.145000    ( 0.0000,  0.0000,  0.0000)
  33 Si     9.502500    6.787500    9.502500    ( 0.0000,  0.0000,  0.0000)
  34 Si    10.860000    8.145000    8.145000    ( 0.0000,  0.0000,  0.0000)
  35 Si    12.217500    9.502500    9.502500    ( 0.0000,  0.0000,  0.0000)
  36 Si     0.000000    5.430000    5.430000    ( 0.0000,  0.0000,  0.0000)
  37 Si     1.357500    6.787500    6.787500    ( 0.0000,  0.0000,  0.0000)
  38 Si     2.715000    8.145000    5.430000    ( 0.0000,  0.0000,  0.0000)
  39 Si     4.072500    9.502500    6.787500    ( 0.0000,  0.0000,  0.0000)
  40 Si     5.430000   10.860000    5.430000    ( 0.0000,  0.0000,  0.0000)
  41 Si     6.787500   12.217500    6.787500    ( 0.0000,  0.0000,  0.0000)
  42 Si     2.715000    5.430000    8.145000    ( 0.0000,  0.0000,  0.0000)
  43 Si     4.072500    6.787500    9.502500    ( 0.0000,  0.0000,  0.0000)
  44 Si     5.430000    8.145000    8.145000    ( 0.0000,  0.0000,  0.0000)
  45 Si     6.787500    9.502500    9.502500    ( 0.0000,  0.0000,  0.0000)
  46 Si     8.145000   10.860000    8.145000    ( 0.0000,  0.0000,  0.0000)
  47 Si     9.502500   12.217500    9.502500    ( 0.0000,  0.0000,  0.0000)
  48 Si     5.430000    5.430000   10.860000    ( 0.0000,  0.0000,  0.0000)
  49 Si     6.787500    6.787500   12.217500    ( 0.0000,  0.0000,  0.0000)
  50 Si     8.145000    8.145000   10.860000    ( 0.0000,  0.0000,  0.0000)
  51 Si     9.502500    9.502500   12.217500    ( 0.0000,  0.0000,  0.0000)
  52 Si    10.860000   10.860000   10.860000    ( 0.0000,  0.0000,  0.0000)
  53 Si    12.217500   12.217500   12.217500    ( 0.0000,  0.0000,  0.0000)

Unit cell:
           periodic     x           y           z      points  spacing
  1. axis:    yes    0.000000    8.145000    8.145000    80     0.1176
  2. axis:    yes    8.145000    0.000000    8.145000    80     0.1176
  3. axis:    yes    8.145000    8.145000    0.000000    80     0.1176

  Lengths:  11.518769  11.518769  11.518769
  Angles:   60.000000  60.000000  60.000000

Effective grid spacing dv^(1/3) = 0.1283

     iter     time        total  log10-change:
                         energy   eigst   dens
iter:   1 22:01:48  -286.132267        c
iter:   2 22:15:12  -286.122077        c -0.84
iter:   3 22:28:56  -286.259780        c -0.86
iter:   4 22:43:11  -286.210480        c -1.90
iter:   5 22:57:21  -286.207845c       c -2.25
iter:   6 23:10:45  -286.207843c       c -3.65
iter:   7 23:24:10  -286.207861c       c -3.66
iter:   8 23:37:50  -286.207857c       c -3.98
iter:   9 23:51:13  -286.207857c       c -5.53c

Converged after 9 iterations.

Dipole moment: (-96.510970, -96.510970, -96.510970) |e|*Ang

Energy contributions relative to reference atoms: (reference = -425862.589512)

Kinetic:       +383.257996
Potential:     -333.624535
External:        +0.000000
XC:            -335.115202
Entropy (-ST):   -0.014265
Local:           -0.718983
SIC:             +0.000000
--------------------------
Free energy:   -286.214989
Extrapolated:  -286.207857

Showing only first 2 kpts
 Kpt  Band  Eigenvalues  Occupancy
  0   106      4.68470    1.99983
  0   107      4.83433    1.99925
  0   108      6.07716    0.02107
  0   109      6.19941    0.00625

  1   106      4.72422    1.99975
  1   107      4.82613    1.99931
  1   108      6.14482    0.01077
  1   109      6.49617    0.00032


Fermi level: 5.62292

Gap: 0.695 eV
Transition (v -> c):
  (s=0, k=21, n=107, [0.08, 0.08, 0.08]) -> (s=0, k=62, n=108, [0.25, 0.25, -0.08])
Direct/indirect transitions are different
Direct gap: 0.790 eV
Transition at: (s=0, k=20, n=107, [0.08, 0.08, -0.08])

Forces in eV/Ang:
  0 Si    0.00007    0.00007    0.00007
  1 Si    0.00093    0.00093    0.00093
  2 Si    0.00046    0.00046    0.00178
  3 Si   -0.00007   -0.00007    0.00189
  4 Si   -0.00032   -0.00032    0.00178
  5 Si   -0.00107   -0.00107    0.00093
  6 Si    0.00046    0.00178    0.00046
  7 Si   -0.00007    0.00189   -0.00007
  8 Si   -0.00068    0.00083    0.00083
  9 Si   -0.00203   -0.00007   -0.00007
 10 Si   -0.00164   -0.00032    0.00046
 11 Si   -0.00046    0.00032    0.00164
 12 Si   -0.00032    0.00178   -0.00032
 13 Si   -0.00107    0.00093   -0.00107
 14 Si   -0.00164    0.00046   -0.00032
 15 Si   -0.00046    0.00164    0.00032
 16 Si   -0.00093    0.00107    0.00107
 17 Si   -0.00178    0.00032    0.00032
 18 Si    0.00178    0.00046    0.00046
 19 Si    0.00189   -0.00007   -0.00007
 20 Si    0.00083   -0.00068    0.00083
 21 Si   -0.00007   -0.00203   -0.00007
 22 Si   -0.00032   -0.00164    0.00046
 23 Si    0.00032   -0.00046    0.00164
 24 Si    0.00083    0.00083   -0.00068
 25 Si   -0.00007   -0.00007   -0.00203
 26 Si   -0.00069   -0.00069   -0.00069
 27 Si    0.00069    0.00069    0.00069
 28 Si    0.00007    0.00007    0.00203
 29 Si   -0.00083   -0.00083    0.00068
 30 Si   -0.00032    0.00046   -0.00164
 31 Si    0.00032    0.00164   -0.00046
 32 Si    0.00007    0.00203    0.00007
 33 Si   -0.00083    0.00068   -0.00083
 34 Si   -0.00189    0.00007    0.00007
 35 Si   -0.00178   -0.00046   -0.00046
 36 Si    0.00178   -0.00032   -0.00032
 37 Si    0.00093   -0.00107   -0.00107
 38 Si    0.00046   -0.00164   -0.00032
 39 Si    0.00164   -0.00046    0.00032
 40 Si    0.00107   -0.00093    0.00107
 41 Si    0.00032   -0.00178    0.00032
 42 Si    0.00046   -0.00032   -0.00164
 43 Si    0.00164    0.00032   -0.00046
 44 Si    0.00203    0.00007    0.00007
 45 Si    0.00068   -0.00083   -0.00083
 46 Si    0.00007   -0.00189    0.00007
 47 Si   -0.00046   -0.00178   -0.00046
 48 Si    0.00107    0.00107   -0.00093
 49 Si    0.00032    0.00032   -0.00178
 50 Si    0.00007    0.00007   -0.00189
 51 Si   -0.00046   -0.00046   -0.00178
 52 Si   -0.00093   -0.00093   -0.00093
 53 Si   -0.00007   -0.00007   -0.00007

System changes: positions 

Initializing position-dependent things.

Density initialized from wave functions
                                                      
                                                      
                                                      
                                                      
                                             Si       
                                    Si                
                                         Si           
                            Si        Si              
                                Si                    
                              Si           Si         
                     Si Si     Si SSi                 
                          Si           Si             
                       Si Si        Si                
                 Si        Si  Si                     
               Si           Si           Si           
                   SSiSi      SiSSi                   
           Si           Si           Si               
                     Si  Si        Si                 
                Si        Si Si                       
             Si           Si                          
                 SSi Si     Si Si                     
         Si           Si                              
                    Si                                
              Si        Si                            
           Si                                         
                Si                                    
       Si                                             
                                                      
                                                      
                                                      
                                                      

Positions:
   0 Si     0.000000    0.000000    0.000000    ( 0.0000,  0.0000,  0.0000)
   1 Si     1.357500    1.357500    1.357500    ( 0.0000,  0.0000,  0.0000)
   2 Si     2.715000    2.715000    0.000000    ( 0.0000,  0.0000,  0.0000)
   3 Si     4.072500    4.072500    1.357500    ( 0.0000,  0.0000,  0.0000)
   4 Si     5.430000    5.430000    0.000000    ( 0.0000,  0.0000,  0.0000)
   5 Si     6.787500    6.787500    1.357500    ( 0.0000,  0.0000,  0.0000)
   6 Si     2.715000    0.000000    2.715000    ( 0.0000,  0.0000,  0.0000)
   7 Si     4.072500    1.357500    4.072500    ( 0.0000,  0.0000,  0.0000)
   8 Si     5.430000    2.715000    2.715000    ( 0.0000,  0.0000,  0.0000)
   9 Si     6.787500    4.072500    4.072500    ( 0.0000,  0.0000,  0.0000)
  10 Si     8.145000    5.430000    2.715000    ( 0.0000,  0.0000,  0.0000)
  11 Si     9.502500    6.787500    4.072500    ( 0.0000,  0.0000,  0.0000)
  12 Si     5.430000    0.000000    5.430000    ( 0.0000,  0.0000,  0.0000)
  13 Si     6.787500    1.357500    6.787500    ( 0.0000,  0.0000,  0.0000)
  14 Si     8.145000    2.715000    5.430000    ( 0.0000,  0.0000,  0.0000)
  15 Si     9.502500    4.072500    6.787500    ( 0.0000,  0.0000,  0.0000)
  16 Si    10.860000    5.430000    5.430000    ( 0.0000,  0.0000,  0.0000)
  17 Si    12.217500    6.787500    6.787500    ( 0.0000,  0.0000,  0.0000)
  18 Si     0.000000    2.715000    2.715000    ( 0.0000,  0.0000,  0.0000)
  19 Si     1.357500    4.072500    4.072500    ( 0.0000,  0.0000,  0.0000)
  20 Si     2.715000    5.430000    2.715000    ( 0.0000,  0.0000,  0.0000)
  21 Si     4.072500    6.787500    4.072500    ( 0.0000,  0.0000,  0.0000)
  22 Si     5.430000    8.145000    2.715000    ( 0.0000,  0.0000,  0.0000)
  23 Si     6.787500    9.502500    4.072500    ( 0.0000,  0.0000,  0.0000)
  24 Si     2.715000    2.715000    5.430000    ( 0.0000,  0.0000,  0.0000)
  25 Si     4.072500    4.072500    6.787500    ( 0.0000,  0.0000,  0.0000)
  26 Si     5.420000    5.430000    5.430000    ( 0.0000,  0.0000,  0.0000)
  27 Si     6.787500    6.787500    6.787500    ( 0.0000,  0.0000,  0.0000)
  28 Si     8.145000    8.145000    5.430000    ( 0.0000,  0.0000,  0.0000)
  29 Si     9.502500    9.502500    6.787500    ( 0.0000,  0.0000,  0.0000)
  30 Si     5.430000    2.715000    8.145000    ( 0.0000,  0.0000,  0.0000)
  31 Si     6.787500    4.072500    9.502500    ( 0.0000,  0.0000,  0.0000)
  32 Si     8.145000    5.430000    8.145000    ( 0.0000,  0.0000,  0.0000)
  33 Si     9.502500    6.787500    9.502500    ( 0.0000,  0.0000,  0.0000)
  34 Si    10.860000    8.145000    8.145000    ( 0.0000,  0.0000,  0.0000)
  35 Si    12.217500    9.502500    9.502500    ( 0.0000,  0.0000,  0.0000)
  36 Si     0.000000    5.430000    5.430000    ( 0.0000,  0.0000,  0.0000)
  37 Si     1.357500    6.787500    6.787500    ( 0.0000,  0.0000,  0.0000)
  38 Si     2.715000    8.145000    5.430000    ( 0.0000,  0.0000,  0.0000)
  39 Si     4.072500    9.502500    6.787500    ( 0.0000,  0.0000,  0.0000)
  40 Si     5.430000   10.860000    5.430000    ( 0.0000,  0.0000,  0.0000)
  41 Si     6.787500   12.217500    6.787500    ( 0.0000,  0.0000,  0.0000)
  42 Si     2.715000    5.430000    8.145000    ( 0.0000,  0.0000,  0.0000)
  43 Si     4.072500    6.787500    9.502500    ( 0.0000,  0.0000,  0.0000)
  44 Si     5.430000    8.145000    8.145000    ( 0.0000,  0.0000,  0.0000)
  45 Si     6.787500    9.502500    9.502500    ( 0.0000,  0.0000,  0.0000)
  46 Si     8.145000   10.860000    8.145000    ( 0.0000,  0.0000,  0.0000)
  47 Si     9.502500   12.217500    9.502500    ( 0.0000,  0.0000,  0.0000)
  48 Si     5.430000    5.430000   10.860000    ( 0.0000,  0.0000,  0.0000)
  49 Si     6.787500    6.787500   12.217500    ( 0.0000,  0.0000,  0.0000)
  50 Si     8.145000    8.145000   10.860000    ( 0.0000,  0.0000,  0.0000)
  51 Si     9.502500    9.502500   12.217500    ( 0.0000,  0.0000,  0.0000)
  52 Si    10.860000   10.860000   10.860000    ( 0.0000,  0.0000,  0.0000)
  53 Si    12.217500   12.217500   12.217500    ( 0.0000,  0.0000,  0.0000)

Unit cell:
           periodic     x           y           z      points  spacing
  1. axis:    yes    0.000000    8.145000    8.145000    80     0.1176
  2. axis:    yes    8.145000    0.000000    8.145000    80     0.1176
  3. axis:    yes    8.145000    8.145000    0.000000    80     0.1176

  Lengths:  11.518769  11.518769  11.518769
  Angles:   60.000000  60.000000  60.000000

Effective grid spacing dv^(1/3) = 0.1283

     iter     time        total  log10-change:
                         energy   eigst   dens
iter:   1 09:34:42  -286.207317        c
iter:   2 10:02:30  -286.207270        c -3.77
iter:   3 10:16:02  -286.207175c       c -3.88
iter:   4 10:29:29  -286.207162c       c -4.00
iter:   5 10:42:57  -286.207161c       c -4.36
