
  ___ ___ ___ _ _ _  
 |   |   |_  | | | | 
 | | | | | . | | | | 
 |__ |  _|___|_____|  25.1.0
 |___|_|             

User:   tshepo@iPhone
Date:   Mon Nov 17 13:02:08 2025
Arch:   arm64
Pid:    39418
CWD:    /Users/tshepo/Documents/Workspace/msc/repositories/symmetry/optimized
Python: 3.13.0
gpaw:   /Users/tshepo/.asdf/installs/python/3.13.0/lib/python3.13/site-packages/gpaw
_gpaw:  /Users/tshepo/.asdf/installs/python/3.13.0/lib/python3.13/site-packages/
        _gpaw.cpython-313-darwin.so
ase:    /Users/tshepo/.asdf/installs/python/3.13.0/lib/python3.13/site-packages/ase (version 3.25.0)
numpy:  /Users/tshepo/.asdf/installs/python/3.13.0/lib/python3.13/site-packages/numpy (version 2.2.3)
scipy:  /Users/tshepo/.asdf/installs/python/3.13.0/lib/python3.13/site-packages/scipy (version 1.15.2)
libxc:  7.0.0
units:  Angstrom and eV
cores: 1
OpenMP: False
OMP_NUM_THREADS: 1

Input parameters:
  basis: dzp
  convergence: {density: 1e-05}
  h: 0.2
  kpts: [2 2 2]
  mode: lcao
  symmetry: {point_group: True}
  xc: PBE

System changes: positions, numbers, cell, pbc, initial_charges, initial_magmoms 

Initialize ...

species:
  Si:
    name: Silicon
    id: ee77bee481871cc2cb65ac61239ccafa
    Z: 14.0
    valence: 4
    core: 10
    charge: 0.0
    file: /Users/tshepo/.gpaw/gpaw-setups-24.11.0/Si.PBE.gz
    compensation charges: {type: gauss,
                           rc: 0.33,
                           lmax: 2}
    cutoffs: {filter: 1.86,
              core: 2.06}
    projectors:
      #              energy  rcut
      - 3s(2.00)   -10.812   1.058
      - 3p(2.00)    -4.081   1.058
      -  s          16.399   1.058
      -  p          23.130   1.058
      -  d           0.000   1.058
  
    # LCAO basis set for Si:
    #   Name: dzp
    #   File: /Users/tshepo/.gpaw/gpaw-setups-24.11.0/Si.dzp.basis.gz
    #   Number of radial functions: 5
    #   Number of spherical harmonics: 13
    #     l=0, rc=6.8594 Bohr: 3s-sz confined orbital
    #     l=1, rc=9.0625 Bohr: 3p-sz confined orbital
    #     l=0, rc=3.8906 Bohr: 3s-dz split-valence wave
    #     l=1, rc=5.2344 Bohr: 3p-dz split-valence wave
    #     l=2, rc=9.0625 Bohr: d-type Gaussian polarization
    #   Number of RI-basis functions 0

Reference energy: -126181.508004  # eV

Spin-paired calculation

Convergence criteria:
 Maximum [total energy] change in last 3 cyles: 0.0005 eV / valence electron
 Maximum integral of absolute [dens]ity change: 1e-05 electrons / valence electron
 Maximum integral of absolute [eigenst]ate change: 4e-08 eV^2 / valence electron
 Maximum number of scf [iter]ations: 333
 (Square brackets indicate name in SCF output, whereas a 'c' in
 the SCF output indicates the quantity has converged.)

Symmetries present (total): 24

  ( 1  0  0)  ( 1  0  0)  ( 1  0 -1)  ( 1  0 -1)  ( 1 -1  0)  ( 1 -1  0)
  ( 0  1  0)  ( 0  0  1)  ( 0  1 -1)  ( 0  0 -1)  ( 0 -1  1)  ( 0 -1  0)
  ( 0  0  1)  ( 0  1  0)  ( 0  0 -1)  ( 0  1 -1)  ( 0 -1  0)  ( 0 -1  1)

  ( 0  1  0)  ( 0  1  0)  ( 0  1 -1)  ( 0  1 -1)  ( 0  0  1)  ( 0  0  1)
  ( 1  0  0)  ( 0  0  1)  ( 1  0 -1)  ( 0  0 -1)  ( 1  0  0)  ( 0  1  0)
  ( 0  0  1)  ( 1  0  0)  ( 0  0 -1)  ( 1  0 -1)  ( 0  1  0)  ( 1  0  0)

  ( 0  0 -1)  ( 0  0 -1)  ( 0 -1  1)  ( 0 -1  1)  ( 0 -1  0)  ( 0 -1  0)
  ( 1  0 -1)  ( 0  1 -1)  ( 1 -1  0)  ( 0 -1  0)  ( 1 -1  0)  ( 0 -1  1)
  ( 0  1 -1)  ( 1  0 -1)  ( 0 -1  0)  ( 1 -1  0)  ( 0 -1  1)  ( 1 -1  0)

  (-1  1  0)  (-1  1  0)  (-1  0  1)  (-1  0  1)  (-1  0  0)  (-1  0  0)
  (-1  0  1)  (-1  0  0)  (-1  1  0)  (-1  0  0)  (-1  1  0)  (-1  0  1)
  (-1  0  0)  (-1  0  1)  (-1  0  0)  (-1  1  0)  (-1  0  1)  (-1  1  0)
Note: your k-points are not as symmetric as your crystal!

8 k-points: 2 x 2 x 2 Monkhorst-Pack grid
2 k-points in the irreducible part of the Brillouin zone
       k-points in crystal coordinates                weights
   0:     0.25000000    0.25000000   -0.25000000          6/8
   1:     0.25000000    0.25000000    0.25000000          2/8

Wave functions: LCAO
  Diagonalizer: Serial LAPACK
  Atomic Correction: dense with blas
  Data-type: complex
 

Occupation numbers: Fermi-Dirac:
  width: 0.1000  # eV
 

Eigensolver
   LCAO using direct dense diagonalizer 

Densities:
  Coarse grid: 32*32*32 grid
  Fine grid: 64*64*64 grid
  Total Charge: 0.000000 

Density mixing:
  Method: separate
  Backend: pulay
  Linear mixing parameter: 0.05
  old densities: 5
  Damping of long wavelength oscillations: 50 

Hamiltonian:
  XC and Coulomb potentials evaluated on a 64*64*64 grid
  Using the PBE Exchange-Correlation functional
  Interpolation: tri-quintic (5. degree polynomial)
  Poisson solver: FastPoissonSolver using
    Stencil: 12*3+1=37 point O(h^6) finite-difference Laplacian
    FFT axes: [np.int64(0), np.int64(1), np.int64(2)]
    FST axes: []
 

XC parameters: PBE with 2 nearest neighbor stencil

Memory estimate:
  Process memory now: 162.52 MiB
  Calculator: 107.59 MiB
    Density: 45.19 MiB
      Arrays: 6.50 MiB
      Localized functions: 36.19 MiB
      Mixer: 2.50 MiB
    Hamiltonian: 6.94 MiB
      Arrays: 4.25 MiB
      XC: 0.00 MiB
      Poisson: 0.00 MiB
      vbar: 2.69 MiB
    Wavefunctions: 55.46 MiB
      C [qnM]: 0.27 MiB
      S, T [2 x qmm]: 2.64 MiB
      P [aqMi]: 0.08 MiB
      BasisFunctions: 52.46 MiB
      Eigensolver: 0.00 MiB

Total number of cores used: 1

Number of atoms: 16
Number of atomic orbitals: 208
Number of bands in calculation: 43
Number of valence electrons: 64
Bands to converge: occupied

... initialized

Initializing position-dependent things.

Density initialized from atomic densities
                                      
                                      
                                      
                                      
                             Si       
                    Si                
                        Si            
                      Si              
                Si                    
             Si   Si       Si         
                                      
         Si       Si   Si             
                    Si                
              Si                      
            Si                        
                Si                    
       Si                             
                                      
                                      
                                      
                                      

Positions:
   0 Si     0.000000    0.000000    0.000000    ( 0.0000,  0.0000,  0.0000)
   1 Si     1.357500    1.357500    1.357500    ( 0.0000,  0.0000,  0.0000)
   2 Si     2.715000    2.715000    0.000000    ( 0.0000,  0.0000,  0.0000)
   3 Si     4.072500    4.072500    1.357500    ( 0.0000,  0.0000,  0.0000)
   4 Si     2.715000    0.000000    2.715000    ( 0.0000,  0.0000,  0.0000)
   5 Si     4.072500    1.357500    4.072500    ( 0.0000,  0.0000,  0.0000)
   6 Si     5.430000    2.715000    2.715000    ( 0.0000,  0.0000,  0.0000)
   7 Si     6.787500    4.072500    4.072500    ( 0.0000,  0.0000,  0.0000)
   8 Si     0.000000    2.715000    2.715000    ( 0.0000,  0.0000,  0.0000)
   9 Si     1.357500    4.072500    4.072500    ( 0.0000,  0.0000,  0.0000)
  10 Si     2.715000    5.430000    2.715000    ( 0.0000,  0.0000,  0.0000)
  11 Si     4.072500    6.787500    4.072500    ( 0.0000,  0.0000,  0.0000)
  12 Si     2.715000    2.715000    5.430000    ( 0.0000,  0.0000,  0.0000)
  13 Si     4.072500    4.072500    6.787500    ( 0.0000,  0.0000,  0.0000)
  14 Si     5.430000    5.430000    5.430000    ( 0.0000,  0.0000,  0.0000)
  15 Si     6.787500    6.787500    6.787500    ( 0.0000,  0.0000,  0.0000)

Unit cell:
           periodic     x           y           z      points  spacing
  1. axis:    yes    0.000000    5.430000    5.430000    32     0.1959
  2. axis:    yes    5.430000    0.000000    5.430000    32     0.1959
  3. axis:    yes    5.430000    5.430000    0.000000    32     0.1959

  Lengths:   7.679180   7.679180   7.679180
  Angles:   60.000000  60.000000  60.000000

Effective grid spacing dv^(1/3) = 0.2138

     iter     time        total  log10-change:
                         energy   eigst   dens
iter:   1 13:02:09   -84.652832        c
iter:   2 13:02:11   -84.649714        c -0.84
iter:   3 13:02:12   -84.690255        c -0.86
iter:   4 13:02:14   -84.675892        c -1.90
iter:   5 13:02:16   -84.675009c       c -2.25
iter:   6 13:02:18   -84.675009c       c -3.65
iter:   7 13:02:19   -84.675013c       c -3.65
iter:   8 13:02:21   -84.675013c       c -4.64
iter:   9 13:02:23   -84.675013c       c -4.84
iter:  10 13:02:25   -84.675013c       c -8.11c

Converged after 10 iterations.

Dipole moment: (-31.751989, -31.751989, -31.751989) |e|*Ang

Energy contributions relative to reference atoms: (reference = -126181.508004)

Kinetic:       +113.341014
Potential:      -98.580515
External:        +0.000000
XC:             -99.310265
Entropy (-ST):   -0.003295
Local:           -0.123600
SIC:             +0.000000
--------------------------
Free energy:    -84.676660
Extrapolated:   -84.675013

Showing all kpts
 Kpt  Band  Eigenvalues  Occupancy
  0    30      4.05874    2.00000
  0    31      4.52722    1.99997
  0    32      6.73570    0.00003
  0    33      7.23506    0.00000

  1    30      5.01663    1.99558
  1    31      5.01663    1.99558
  1    32      6.27976    0.00295
  1    33      6.27976    0.00295


Fermi level: 5.62793

Gap: 1.263 eV
Transition (v -> c):
  (s=0, k=1, n=31, [0.25, 0.25, 0.25]) -> (s=0, k=1, n=32, [0.25, 0.25, 0.25])
No difference between direct/indirect transitions
Writing to ./data/meta/si_semi_supercell.gpw (mode='')

Timing:                              incl.     excl.
-----------------------------------------------------------
Basic WFS set positions:             0.002     0.002   0.0% |
Basis functions set positions:       0.028     0.028   0.2% |
LCAO WFS Initialize:                 0.161     0.016   0.1% |
 Hamiltonian:                        0.145     0.000   0.0% |
  Atomic:                            0.111     0.000   0.0% |
   XC Correction:                    0.111     0.111   0.7% |
  Calculate atomic Hamiltonians:     0.003     0.003   0.0% |
  Communicate:                       0.000     0.000   0.0% |
  Hartree integrate/restrict:        0.001     0.001   0.0% |
  Initialize Hamiltonian:            0.000     0.000   0.0% |
  Poisson:                           0.010     0.000   0.0% |
   Communicate from 1D:              0.001     0.001   0.0% |
   Communicate from 2D:              0.001     0.001   0.0% |
   Communicate to 1D:                0.001     0.001   0.0% |
   Communicate to 2D:                0.001     0.001   0.0% |
   FFT 1D:                           0.001     0.001   0.0% |
   FFT 2D:                           0.004     0.004   0.0% |
  XC 3D grid:                        0.019     0.019   0.1% |
  vbar:                              0.000     0.000   0.0% |
P tci:                               0.061     0.061   0.4% |
SCF-cycle:                          16.273     0.003   0.0% |
 Density:                            8.307     0.000   0.0% |
  Atomic density matrices:           0.018     0.018   0.1% |
  Mix:                               0.044     0.044   0.3% |
  Multipole moments:                 0.001     0.001   0.0% |
  Normalize:                         0.000     0.000   0.0% |
  Pseudo density:                    8.243     0.000   0.0% |
   Calculate density matrix:         0.004     0.004   0.0% |
   Construct density:                8.218     8.218  48.9% |-------------------|
   Symmetrize density:               0.021     0.021   0.1% |
 Hamiltonian:                        1.302     0.000   0.0% |
  Atomic:                            0.996     0.003   0.0% |
   XC Correction:                    0.993     0.993   5.9% |-|
  Calculate atomic Hamiltonians:     0.027     0.027   0.2% |
  Communicate:                       0.000     0.000   0.0% |
  Hartree integrate/restrict:        0.008     0.008   0.0% |
  Poisson:                           0.090     0.004   0.0% |
   Communicate from 1D:              0.011     0.011   0.1% |
   Communicate from 2D:              0.011     0.011   0.1% |
   Communicate to 1D:                0.009     0.009   0.1% |
   Communicate to 2D:                0.012     0.012   0.1% |
   FFT 1D:                           0.008     0.008   0.0% |
   FFT 2D:                           0.034     0.034   0.2% |
  XC 3D grid:                        0.178     0.178   1.1% |
  vbar:                              0.002     0.002   0.0% |
 LCAO eigensolver:                   6.661     0.001   0.0% |
  Calculate projections:             0.008     0.008   0.0% |
  DenseAtomicCorrection:             0.038     0.038   0.2% |
  Distribute overlap matrix:         0.001     0.001   0.0% |
  Orbital Layouts:                   0.177     0.177   1.1% |
  Potential matrix:                  6.361     6.361  37.8% |--------------|
  Sum over cells:                    0.075     0.075   0.4% |
ST tci:                              0.070     0.070   0.4% |
Set symmetry:                        0.002     0.002   0.0% |
TCI: Evaluate splines:               0.011     0.011   0.1% |
mktci:                               0.004     0.004   0.0% |
Other:                               0.208     0.208   1.2% |
-----------------------------------------------------------
Total:                                        16.820 100.0%

Memory usage: 416.27 MiB
Date: Mon Nov 17 13:02:25 2025
